     147
 i =        1, E =    -18181.7200666027
 Pd        14.0583111232       14.0602037380       14.0550835200
 Pt        16.3444087540       14.0417489806       12.6351658802
 Pt        16.3681654427       14.0666022872       15.4585021017
 Pd        11.7620744281       14.0585698165       12.6144285082
 Pd        11.7366909059       14.0385626063       15.4588883493
 Pt        12.6255614615       16.3350093010       14.0511292529
 Pt        15.4676732435       16.3679126851       14.0746661924
 Pd        12.6123052918       11.7639183715       14.0569843838
 Pd        15.4638036573       11.7472954653       14.0380515371
 Pt        14.0531564773       12.6351767824       16.3441396017
 Pt        14.0706588933       15.4585435380       16.3678573853
 Pd        14.0582047654       12.6155307494       11.7667594076
 Pd        14.0320064532       15.4571159640       11.7400881282
 Pt        18.6472031146       14.0474674951       11.2085177311
 Pt        18.6973309137       14.0510531967       14.0552340550
 Pd        18.6498005928       14.0504072651       16.8895240538
 Pd         9.4574699663       14.0476276982       11.2104390710
 Pt         9.3986130850       14.0517692576       14.0571307257
 Pt         9.4581514056       14.0442761574       16.8833948018
 Pd        11.2103654447       18.6490378676       14.0553919256
 Pd        14.0553111792       18.6913364279       14.0493296044
 Pt        16.8988932723       18.6521903229       14.0534505083
 Pt        11.2078383532        9.4564329296       14.0495067104
 Pd        14.0629617105        9.4123509271       14.0462497585
 Pd        16.8843309923        9.4613994825       14.0572724767
 Pt        14.0411584117       11.2088657875       18.6440713937
 Pt        14.0495165941       14.0551329754       18.6984622344
 Pd        14.0488533355       16.8878165498       18.6482171478
 Pd        14.0491463484       11.2105426839        9.4567626884
 Pt        14.0528095409       14.0592242005        9.4009113740
 Pt        14.0502288162       16.8823560677        9.4599231222
 Pd        16.3626825056       12.6043836893       17.8043020899
 Pd        16.3623220361       15.4802330199       17.8072669098
 Pt        16.3726496386       12.6086115954       10.2950927153
 Pt        16.3813371275       15.4966544494       10.2903995457
 Pd        11.7348916899       12.6124441886       17.7954153700
 Pd        11.7287078888       15.4900602995       17.8075241071
 Pt        11.7313687209       12.6200786762       10.2858014193
 Pt        11.7187191554       15.4811113930       10.2898556612
 Pd        17.8050056056       16.3656225851       12.6070127270
 Pd        17.8076379116       16.3599391782       15.4797308900
 Pt        10.2966176983       16.3767402208       12.6114532551
 Pt        10.2937493460       16.3785056152       15.4889242282
 Pd        17.7938871424       11.7357330272       12.6226689769
 Pd        17.8031226739       11.7283148844       15.4889295080
 Pt        10.2885518033       11.7294789603       12.6222054798
 Pt        10.2941581249       11.7181707589       15.4813055402
 Pd        12.6073134682       17.8021017922       16.3644485552
 Pd        15.4753221248       17.8078375012       16.3683894626
 Pt        12.6103252691       10.2922745347       16.3768261848
 Pt        15.4866043259       10.2901059486       16.3827328009
 Pd        12.6235221426       17.8014335284       11.7418662015
 Pd        15.4859298639       17.8121218023       11.7299361239
 Pt        12.6304474014       10.2876712545       11.7216463940
 Pt        15.4780328005       10.2895838784       11.7126044024
 Pd        20.9850355063       14.0167565930        9.7806168893
 Pt        20.9453320110       14.0255101032       12.6315256380
 Pd        21.0371713326       14.0444791104       15.4596435624
 Pt        20.8997685842       14.1021051747       18.3021823409
 Pd         7.1102629837       14.0456283448        9.7692903679
 Pt         7.1494786318       14.0468054070       12.6263142092
 Pd         7.0498035319       14.0576871754       15.4744257117
 Pt         7.1896881393       13.9938050791       18.3035945399
 Pd         9.7791029938       20.9874751366       14.0159938137
 Pt        12.6307150928       20.9537352820       14.0186690282
 Pd        15.4695665640       21.0410887884       14.0363702035
 Pt        18.2954665012       20.8889113450       14.1026783282
 Pd         9.7687067282        7.1151252262       14.0491639907
 Pt        12.6186015682        7.1463276380       14.0500715985
 Pd        15.4787014566        7.0497268883       14.0535934738
 Pt        18.3056713423        7.1856891425       13.9975140893
 Pd        14.0136678475        9.7790093941       20.9838319963
 Pt        14.0261547746       12.6375645064       20.9421377830
 Pd        14.0443259781       15.4626586647       21.0366428608
 Pt        14.1016264510       18.3025973854       20.8984268677
 Pd        14.0456338688        9.7687462728        7.1110659012
 Pt        14.0479509223       12.6274022558        7.1482755032
 Pd        14.0568413946       15.4797441238        7.0491913777
 Pt        13.9962533557       18.3023892110        7.1895922835
 Pd        18.7140048667       12.6237575916       19.2561121812
 Pd        16.3656614489       11.1901442691       20.1429153269
 Pt        18.6538620508       15.5000198200       19.2133080111
 Pd        16.4059222306       14.0642824434       20.2145234586
 Pt        16.3789910340       16.9085749458       20.0843618845
 Pt        18.6600609555       12.6167965749        8.9118240448
 Pd        16.4042634874       11.1894744162        7.9733739222
 Pd        18.6850108590       15.4881982091        8.8338146839
 Pt        16.3761688559       14.0216472624        7.9305432802
 Pd        16.3805780819       16.9286330647        7.9627421827
 Pt         9.4359938656       12.6293524925       19.2218995366
 Pt        11.7284209757       11.2078054161       20.0905250911
 Pd         9.4053709001       15.4640228014       19.2591011119
 Pt        11.7161300541       14.0195087616       20.1766655941
 Pd        11.7251870785       16.9159359039       20.1580142549
 Pd         9.4121364058       12.5910475888        8.8396477252
 Pt        11.7533117596       11.2093030452        8.0220484061
 Pt         9.4638912908       15.5049223090        8.8906484254
 Pd        11.6953027102       14.0530064250        7.8879213310
 Pt        11.7240028100       16.9237078378        8.0230976569
 Pd        19.2493355523       18.7152732562       12.6044175816
 Pd        20.1354146242       16.3755188623       11.1813412756
 Pt        19.2136732200       18.6583841752       15.4934303761
 Pd        20.2164975239       16.4005025110       14.0706451399
 Pt        20.0843948177       16.3799828972       16.9071054760
 Pt         8.9123271540       18.6515121827       12.6036465812
 Pd         7.9745825601       16.4050139317       11.1913814875
 Pd         8.8321255251       18.6793484990       15.4736797205
 Pt         7.9330663654       16.3795273785       14.0302389054
 Pd         7.9579708253       16.3707992626       16.9163812701
 Pt        19.2200213963        9.4402168685       12.6062957652
 Pt        20.0775984978       11.7142960773       11.2056535007
 Pd        19.2637871982        9.4064717444       15.4638746748
 Pt        20.1784873721       11.7172965893       14.0231508944
 Pd        20.1550100274       11.7211652340       16.9129605272
 Pd         8.8375066209        9.4077255960       12.5857712133
 Pt         8.0199985953       11.7549143782       11.2080122458
 Pt         8.8871352444        9.4581474860       15.4875686612
 Pd         7.8883098672       11.6970297582       14.0563590526
 Pt         8.0143440046       11.7350557006       16.9155516236
 Pd        12.6230946604       19.2541984136       18.7122615971
 Pd        11.1956622802       20.1438522852       16.3693054160
 Pt        15.4992861568       19.2121356422       18.6559937827
 Pd        14.0605172735       20.2119211327       16.4079695543
 Pt        16.9056607053       20.0856366447       16.3761165677
 Pt        12.6272710162        8.9118468460       18.6629618705
 Pd        11.1961440242        7.9618981178       16.3946632374
 Pd        15.4780684069        8.8331598120       18.6793938033
 Pt        14.0270347444        7.9352905080       16.3862688878
 Pd        16.9125539602        7.9565708685       16.3724935541
 Pt        12.6202558498       19.2157465879        9.4362868989
 Pt        11.2097869260       20.0786578687       11.7134125801
 Pd        15.4757701373       19.2544642068        9.4035019586
 Pt        14.0113544191       20.1835379901       11.7142044766
 Pd        16.9229504208       20.1489849163       11.7147871806
 Pd        12.5916236019        8.8417729181        9.4111187630
 Pt        11.2070871365        8.0189814507       11.7611228054
 Pt        15.5039523416        8.8937208710        9.4664223826
 Pd        14.0545521972        7.8874299687       11.6910601085
 Pt        16.9176202814        8.0266653296       11.7228339864
 Pd        17.8397443705       10.2549680204       17.8467843233
 Pd        17.8691080642       17.8636570249       17.8695698656
 Pt        17.8454632939       10.2546552438       10.2595132196
 Pt        17.8260961456       17.8081743797       10.2772690811
 Pd        10.2333354869       10.2396454244       17.8648361293
 Pd        10.2518593098       17.8481543079       17.8348834301
 Pt        10.2663597920       10.2700329628       10.2674960143
 Pt        10.2529153509       17.8426897196       10.2577092591
     147
 i =        2, E =    -18181.9557273933
 Pd        14.0614629560       14.0675148674       14.0580432425
 Pt        16.2579246834       14.0515296203       12.6876625687
 Pt        16.3270494011       14.0641441908       15.4125360823
 Pd        11.8540320088       14.0583749505       12.6459003084
 Pd        11.7967068747       14.0393458567       15.3906684815
 Pt        12.6693889927       16.2556409053       14.0730802260
 Pt        15.4206804769       16.3220957798       14.0836552646
 Pd        12.6516977172       11.8607796001       14.0535950453
 Pd        15.4036964903       11.8072969113       14.0427067652
 Pt        14.0714395708       12.6910347424       16.2517322731
 Pt        14.0734240464       15.4115450825       16.3245381656
 Pd        14.0575781322       12.6511649675       11.8622191462
 Pd        14.0303700458       15.3904876831       11.8031549998
 Pt        18.4786801917       14.0952905385       11.2800768261
 Pt        18.6102869239       14.0661378537       14.0758497580
 Pd        18.5007087671       14.0069505454       16.7757043597
 Pd         9.6055375880       14.0510797433       11.2810096994
 Pt         9.4827743266       14.0320465544       14.0761677532
 Pt         9.6230930896       14.0798231304       16.7489829925
 Pd        11.2872586726       18.4926151458       14.1118986264
 Pd        14.0686052097       18.6082099272       14.0668729239
 Pt        16.7895571196       18.4857944994       14.0108426718
 Pt        11.2859371558        9.6156151360       14.0511792093
 Pd        14.0909733683        9.5030706081       14.0252545274
 Pd        16.7641607122        9.6210809512       14.1143069018
 Pt        14.0777772199       11.2833766293       18.4679915739
 Pt        14.0633051386       14.0758764004       18.6052764481
 Pd        14.0006981322       16.7705596524       18.4985032316
 Pd        14.0533744734       11.2856744163        9.6006472450
 Pt        14.0356925700       14.0805666775        9.4860524386
 Pt        14.0999785684       16.7491303914        9.6237870291
 Pd        16.3321590054       12.6159567040       17.7612059930
 Pd        16.3184669607       15.4391422288       17.7221763978
 Pt        16.2943568120       12.6233127365       10.3761473596
 Pt        16.3574830085       15.4808282560       10.3488832698
 Pd        11.7922868857       12.6368880256       17.6781985911
 Pd        11.7565490983       15.4864914939       17.7535026883
 Pt        11.7757656960       12.6746475797       10.3514328471
 Pt        11.7749364830       15.4282378012       10.3673575877
 Pd        17.7637726435       16.3264076678       12.6357291812
 Pd        17.7238548842       16.3084747390       15.4500958531
 Pt        10.3837912777       16.3039223375       12.6321545151
 Pt        10.3557471315       16.3636102733       15.4837169808
 Pd        17.6753345904       11.7954453620       12.6754408345
 Pd        17.7461807687       11.7515487202       15.4877594453
 Pt        10.3553467140       11.7691717626       12.6785890519
 Pt        10.3727100164       11.7583570602       15.4481693898
 Pd        12.6207287563       17.7527804388       16.3305373036
 Pd        15.4293535093       17.7202597841       16.3310580558
 Pt        12.6080701570       10.3678138690       16.3047965682
 Pt        15.4783035536       10.3506530392       16.3624414615
 Pd        12.6681293054       17.6895533168       11.8216794604
 Pd        15.4668080901       17.7672118933       11.7718293089
 Pt        12.6946355935       10.3556542069       11.7514031603
 Pt        15.4277978635       10.3677903364       11.7739059067
 Pd        20.8343035505       13.9587330904        9.9018044461
 Pt        20.7943929323       14.0015413766       12.6880830164
 Pd        20.9785492442       14.0319468073       15.3881302655
 Pt        20.6582067203       14.1983829810       18.1769047735
 Pd         7.2697879933       14.0445602915        9.8761999329
 Pt         7.3095206278       14.0464733664       12.6716075924
 Pd         7.0825994080       14.0695317150       15.4207734527
 Pt         7.4051416913       13.8964669036       18.1874315433
 Pd         9.9044219753       20.8318667782       13.9541212197
 Pt        12.6890166010       20.7997160336       13.9810913265
 Pd        15.4070452131       20.9852495940       14.0105711174
 Pt        18.1613898639       20.6389113450       14.1903634832
 Pd         9.8663621657        7.2760163353       14.0528265110
 Pt        12.6601741605        7.3093493358       14.0579495177
 Pd        15.4387728069        7.0988606203       14.0543891609
 Pt        18.1756779561        7.4313074210       13.9036163484
 Pd        13.9515288094        9.8959045471       20.8360178779
 Pt        14.0079870894       12.7041035599       20.7919724167
 Pd        14.0346138083       15.3940439755       20.9772240410
 Pt        14.1984403445       18.1820372387       20.6619793235
 Pd        14.0441495679        9.8754863386        7.2712464044
 Pt        14.0479548501       12.6782451129        7.3070688153
 Pd        14.0658562655       15.4331768248        7.0856758084
 Pt        13.9030518825       18.1840999864        7.4051277460
 Pd        18.6499583031       12.6473479403       19.2118858669
 Pd        16.3273807128       11.2534238153       20.0786198172
 Pt        18.5100843828       15.5252330307       19.1290796805
 Pd        16.4290728796       14.0788954787       20.2639685771
 Pt        16.3993975624       16.8436282688       19.9488721078
 Pt        18.5637861507       12.6209866487        9.0308546734
 Pd        16.4247249112       11.2311768464        8.0575635499
 Pd        18.6041781392       15.4701978180        8.8600699645
 Pt        16.3636984440       13.9935323021        7.9332760624
 Pd        16.3747788804       16.8889551359        8.0333176695
 Pt         9.5557782788       12.6507081076       19.1573342227
 Pt        11.7193687241       11.2712085268       19.9718267891
 Pd         9.4963157381       15.4277034928       19.2247777281
 Pt        11.7116402225       13.9952094291       20.1796017921
 Pd        11.7363851813       16.8548543383       20.1122652045
 Pd         9.4900856646       12.5770130469        8.8818165761
 Pt        11.8026109288       11.2848058901        8.1594952329
 Pt         9.5912130160       15.5223400468        8.9872895930
 Pd        11.6738658314       14.0673637506        7.8260523353
 Pt        11.7046858966       16.8815216452        8.1559729297
 Pd        19.2004333864       18.6579783795       12.5950945802
 Pd        20.0639243025       16.3532419280       11.2315797317
 Pt        19.1368610101       18.5213368047       15.5107155486
 Pd        20.2687491433       16.4208359572       14.0877690474
 Pt        19.9485787178       16.3993811687       16.8399273730
 Pt         9.0406330020       18.5484993503       12.5899629578
 Pd         8.0590087378       16.4232335740       11.2373535279
 Pd         8.8612116655       18.5906070195       15.4314302503
 Pt         7.9351720580       16.3692052904       14.0100222882
 Pd         8.0256968268       16.3499489174       16.8601761398
 Pt        19.1444391907        9.5543011900       12.6043100901
 Pt        19.9390979296       11.6902393466       11.2706794203
 Pd        19.2329784503        9.4935373483       15.4134256069
 Pt        20.1854916290       11.7142597970       14.0010891163
 Pd        20.1038853298       11.7290104379       16.8444690971
 Pd         8.8714240691        9.4766982679       12.5594641932
 Pt         8.1573984697       11.8072884679       11.2810757100
 Pt         8.9779252847        9.5805729933       15.4857589151
 Pd         7.8299421835       11.6755868469       14.0734460422
 Pt         8.1357538521       11.7309540662       16.8599370865
 Pd        12.6420733508       19.2075792733       18.6418403703
 Pd        11.2696359363       20.0818859459       16.3357409862
 Pt        15.5254258797       19.1250535311       18.5155736121
 Pd        14.0686593649       20.2560250763       16.4269446194
 Pt        16.8340001412       19.9563262766       16.3926351713
 Pt        12.6385585475        9.0274538940       18.5730556566
 Pd        11.2474287428        8.0289390835       16.4050433502
 Pd        15.4547040782        8.8609031844       18.5944744815
 Pt        13.9999357697        7.9469297928       16.3760416863
 Pd        16.8543381188        8.0209311675       16.3434560193
 Pt        12.6319550260       19.1434743504        9.5538534674
 Pt        11.2760006934       19.9367381783       11.6911206931
 Pd        15.4513634991       19.2160148528        9.4900685955
 Pt        13.9787006230       20.1982617445       11.7105659120
 Pd        16.8726957986       20.0944753895       11.7146848898
 Pd        12.5775703240        8.8855123648        9.4821669163
 Pt        11.2781003511        8.1578118985       11.8203948562
 Pt        15.5247446697        8.9917783838        9.5917391943
 Pd        14.0668607872        7.8256409381       11.6730780745
 Pt        16.8689969021        8.1673324223       11.7193247484
 Pd        17.8439766279       10.2509097090       17.8528819173
 Pd        17.9153211183       17.9050307707       17.9157209422
 Pt        17.8852911115       10.2327047855       10.2324024382
 Pt        17.8046606917       17.7778718781       10.2997895837
 Pd        10.1911778346       10.1946752763       17.9188266217
 Pd        10.2451577454       17.8547963311       17.8326146328
 Pt        10.2740883338       10.2802213957       10.2787608107
 Pt        10.2249408188       17.8803237345       10.2412147856
     147
 i =        3, E =    -18181.9743841957
 Pd        14.0599127414       14.0632884590       14.0590428183
 Pt        16.2699733145       14.0709840855       12.6779946658
 Pt        16.3000174404       14.0297490904       15.4227844235
 Pd        11.8496143645       14.0426092722       12.6629553659
 Pd        11.8274164943       14.0629990753       15.3907841229
 Pt        12.6683019249       16.2747103025       14.0926018263
 Pt        15.4089166477       16.2891618798       14.0525058579
 Pd        12.6728851454       11.8550044313       14.0350779403
 Pd        15.4009847850       11.8206656304       14.0735923197
 Pt        14.0826366245       12.6741618417       16.2660384829
 Pt        14.0385529846       15.4241200764       16.2989980538
 Pd        14.0427386791       12.6628392782       11.8528576721
 Pd        14.0621064003       15.3981156900       11.8306925068
 Pt        18.4550366345       14.1252138500       11.2772781486
 Pt        18.5941170100       14.0657586181       14.0621372427
 Pd        18.4907097557       13.9820698156       16.7692687895
 Pd         9.6310290960       14.0505010340       11.2922575209
 Pt         9.5048516998       14.0215749067       14.0649094547
 Pt         9.6057245121       14.1055875416       16.7500108290
 Pd        11.2905363669       18.4664515060       14.1329675764
 Pd        14.0612440063       18.5884606371       14.0789113358
 Pt        16.7812437061       18.4700932569       13.9790902269
 Pt        11.2958891732        9.6295156855       14.0473781125
 Pd        14.0780290762        9.5216056866       14.0184144772
 Pd        16.7498644213        9.6307242977       14.1415454820
 Pt        14.1000393874       11.2776526658       18.4535566142
 Pt        14.0651030657       14.0588999695       18.5808552428
 Pd        13.9780763859       16.7658438812       18.4964867069
 Pd        14.0562577135       11.2972082881        9.6218209691
 Pt        14.0240902500       14.0678389280        9.5057987784
 Pt        14.1323344426       16.7558229706        9.6065509971
 Pd        16.3445930522       12.6322193766       17.7620380727
 Pd        16.3058276272       15.4269967778       17.6903627192
 Pt        16.2786783197       12.6321990159       10.4003342919
 Pt        16.3524341529       15.4691947633       10.3582466417
 Pd        11.8068597182       12.6524903230       17.6529845907
 Pd        11.7536439649       15.4782030331       17.7422344243
 Pt        11.7858852770       12.6839296246       10.3747619406
 Pt        11.8160389254       15.4391165562       10.3874570551
 Pd        17.7627680563       16.3291503338       12.6605929062
 Pd        17.6887921934       16.3019153822       15.4455713657
 Pt        10.4085407301       16.2808542013       12.6424386920
 Pt        10.3611736454       16.3610726128       15.4836825122
 Pd        17.6514229720       11.8063673926       12.6839248070
 Pd        17.7400893043       11.7483873980       15.4869203168
 Pt        10.3761043374       11.7792092550       12.6846122626
 Pt        10.3944796208       11.8013476448       15.4577923296
 Pd        12.6376467218       17.7531403796       16.3456591467
 Pd        15.4220783238       17.6887364830       16.3162890392
 Pt        12.6167411670       10.3837954726       16.2819883050
 Pt        15.4787024606       10.3574517700       16.3590739062
 Pd        12.6768755861       17.6574641819       11.8335722586
 Pd        15.4525517455       17.7561786524       11.7767169177
 Pt        12.6955041761       10.3713746348       11.7656317706
 Pt        15.4398362979       10.3898390922       11.8204194543
 Pd        20.7702349448       13.9385091964        9.9521603816
 Pt        20.7841502029       14.0087307248       12.6877233172
 Pd        20.9429234374       14.0288508293       15.3848153336
 Pt        20.6193268339       14.2093670804       18.1356456508
 Pd         7.3047370707       14.0536721136        9.8916337642
 Pt         7.3164939045       14.0508167849       12.6908621806
 Pd         7.1126834979       14.0698879120       15.4114979776
 Pt         7.4606790017       13.8965804303       18.1449046400
 Pd         9.9492555138       20.7760143780       13.9277464233
 Pt        12.6949849273       20.7879075755       13.9933028477
 Pd        15.3933971635       20.9437794612       14.0045352261
 Pt        18.1374242522       20.6264349331       14.1887082166
 Pd         9.8966760388        7.3463959885       14.0627673988
 Pt        12.6786327078        7.3276833598       14.0656577521
 Pd        15.4195443940        7.1381176354       14.0512809410
 Pt        18.1471547491        7.4735156140       13.9004266434
 Pd        13.9343281043        9.9467847584       20.7732494313
 Pt        14.0187324984       12.6996677188       20.7808250728
 Pd        14.0330642556       15.3939376238       20.9402831703
 Pt        14.2090513275       18.1391076467       20.6168426300
 Pd        14.0530539707        9.8926423624        7.3040218357
 Pt        14.0500603785       12.6987454514        7.3110670740
 Pd        14.0670686428       15.4231268267        7.1207326803
 Pt        13.9014234662       18.1375854047        7.4672103766
 Pd        18.6114502115       12.6584870890       19.1894015776
 Pd        16.3118438512       11.2749366316       20.0544320136
 Pt        18.5072549799       15.5137125852       19.1073417160
 Pd        16.4213831016       14.0802857439       20.2627123940
 Pt        16.3789996324       16.8382757266       19.9209317665
 Pt        18.5425009404       12.6144067113        9.0476395193
 Pd        16.4286593017       11.2403751342        8.0964975253
 Pd        18.5852275200       15.4541386643        8.8709587800
 Pt        16.3691103313       14.0017900403        7.9501975772
 Pd        16.3519973104       16.8772254102        8.0527610647
 Pt         9.6036997785       12.6377673082       19.1349187311
 Pt        11.7207051617       11.2773103918       19.9264011768
 Pd         9.5292618713       15.4189506672       19.2046191546
 Pt        11.7117365052       14.0174890086       20.1686779501
 Pd        11.7505026291       16.8363556587       20.0931672258
 Pd         9.5303072724       12.5807665354        8.9003394525
 Pt        11.7903517927       11.2954005127        8.1760207167
 Pt         9.5766366664       15.5163892583        8.9995607380
 Pd        11.6674745607       14.0816757120        7.8216243573
 Pt        11.7093857430       16.8676374050        8.1787210048
 Pd        19.1797197919       18.6219179419       12.5975181285
 Pd        20.0421997795       16.3401268336       11.2485051069
 Pt        19.1147208688       18.5031350873       15.5075745218
 Pd        20.2672146024       16.4190937827       14.0819380922
 Pt        19.9250780488       16.3861581695       16.8323809585
 Pt         9.0597961934       18.5345153529       12.5932079351
 Pd         8.0972212409       16.4193478583       11.2482512350
 Pd         8.8681702819       18.5703413843       15.4166690889
 Pt         7.9524815927       16.3672326276       14.0097811838
 Pd         8.0474481319       16.3259005682       16.8443122879
 Pt        19.1185332952        9.5898846105       12.6103398768
 Pt        19.9084123457       11.7177222868       11.2721471707
 Pd        19.2212041878        9.5320393726       15.4012471642
 Pt        20.1720918227       11.7076672568       14.0135559282
 Pd        20.0853028540       11.7428473533       16.8225890401
 Pd         8.8892907344        9.5057371691       12.5647456157
 Pt         8.1777982558       11.7945104428       11.2930704722
 Pt         8.9842702158        9.5657795490       15.4873973350
 Pd         7.8246858768       11.6719611558       14.0781528456
 Pt         8.1621423339       11.7148084493       16.8367482398
 Pd        12.6530278916       19.1825296953       18.6022918906
 Pd        11.2949323237       20.0608430071       16.3273730545
 Pt        15.5170042992       19.1031588216       18.5115126801
 Pd        14.0711162424       20.2553954413       16.4167649413
 Pt        16.8173970487       19.9198912007       16.3816893346
 Pt        12.6201480414        9.0430631130       18.5507310566
 Pd        11.2493011802        8.0611304199       16.4067364353
 Pd        15.4455213684        8.8733576440       18.5771199329
 Pt        14.0057575579        7.9693087420       16.3694777993
 Pd        16.8358731050        8.0408960012       16.3254770026
 Pt        12.6359049665       19.1137768234        9.5905800732
 Pt        11.2743440134       19.9039140659       11.7054331339
 Pd        15.4352652544       19.1951422307        9.5206875125
 Pt        14.0083874432       20.1856092848       11.6950062797
 Pd        16.8546715798       20.0725862800       11.7284077985
 Pd        12.5793840556        8.9019188839        9.5230128099
 Pt        11.2835588530        8.1808595319       11.8124930186
 Pt        15.5198366210        9.0049677067        9.5792995993
 Pd        14.0744844645        7.8259247259       11.6727559526
 Pt        16.8464694541        8.1890912299       11.7206234492
 Pd        17.8412938258       10.2588917175       17.8447398099
 Pd        17.9240769927       17.9211384106       17.9223015311
 Pt        17.8878351892       10.2420626904       10.2262483715
 Pt        17.7905819868       17.7779281066       10.3101372458
 Pd        10.1912825939       10.1885489170       17.9328176065
 Pd        10.2539726742       17.8450892787       17.8310009220
 Pt        10.2930334859       10.2962724326       10.2985105645
 Pt        10.2285859223       17.8860593425       10.2409234481
     147
 i =        4, E =    -18181.9793687379
 Pd        14.0559413240       14.0552736790       14.0597212559
 Pt        16.2633296289       14.0699679645       12.6890422865
 Pt        16.2978925491       14.0224407927       15.4277820172
 Pd        11.8557823854       14.0507800443       12.6675315583
 Pd        11.8192498864       14.0695642084       15.4040803084
 Pt        12.6745137509       16.2716182889       14.0933315577
 Pt        15.4181824160       16.2913379088       14.0434027194
 Pd        12.6730774258       11.8520115317       14.0427700021
 Pd        15.4059485226       11.8233988698       14.0813894558
 Pt        14.0797408338       12.6769486170       16.2646032285
 Pt        14.0292787424       15.4234337518       16.2997364196
 Pd        14.0514905970       12.6665532871       11.8540574238
 Pd        14.0711879317       15.4056083355       11.8269344015
 Pt        18.4597122969       14.1409918477       11.2741483073
 Pt        18.5865639646       14.0645005796       14.0602714987
 Pd        18.4812076808       13.9786591045       16.7608574905
 Pd         9.6246815047       14.0506043445       11.2878554457