     147
 i =        1, E =    -18188.7708465270
 Pd        14.0660982675       14.0663847240       14.0660937752
 Pt        16.3448681404       14.0327446025       12.6155837433
 Pd        16.3400116898       14.0329087435       15.4970300000
 Pt        11.7493184057       14.0346954186       12.6372118858
 Pd        11.7640636170       14.0345235838       15.4744555999
 Pt        12.6165347430       16.3428919604       14.0358121233
 Pd        15.4960173394       16.3384425700       14.0354149980
 Pt        12.6352138463       11.7456729176       14.0366627927
 Pd        15.4760829016       11.7612866596       14.0354162467
 Pt        14.0352537074       12.6134682403       16.3449369160
 Pd        14.0347371176       15.4952288255       16.3403458937
 Pt        14.0369307430       12.6343076081       11.7480707650
 Pd        14.0363926786       15.4720708161       11.7649379075
 Pt        18.6570221982       14.0532277993       11.2189029712
 Pd        18.6839825441       14.0533970759       14.0391638833
 Pt        18.6333590881       14.0477202898       16.8759636824
 Pd         9.4369354634       14.0529169755       11.2026626079
 Pt         9.4011966388       14.0522803994       14.0366397867
 Pd         9.4701547229       14.0475726534       16.8918838502
 Pt        11.2181148424       18.6578690056       14.0538899309
 Pd        14.0384261324       18.6841689862       14.0507494585
 Pt        16.8763777711       18.6341026984       14.0493788988
 Pd        11.2021165880        9.4385604880       14.0548529649
 Pt        14.0377562985        9.4014005665       14.0510060550
 Pd        16.8925206785        9.4713448557       14.0499066109
 Pt        14.0555874433       11.2182199272       18.6563913405
 Pd        14.0510758231       14.0406966895       18.6839938087
 Pt        14.0490251052       16.8750911366       18.6335193516
 Pd        14.0553978473       11.2023369289        9.4374701184
 Pt        14.0507276244       14.0386584171        9.4012652714
 Pd        14.0489395003       16.8911805714        9.4697365749
 Pt        16.3845140227       12.6207917350       17.8088054740
 Pd        16.3838357220       15.4775873762       17.8062990606
 Pt        16.3759173364       12.6178786854       10.2922743528
 Pd        16.3706234966       15.4856294750       10.2989942746
 Pt        11.7234592961       12.6115659488       17.8126437959
 Pd        11.7217622838       15.4789124618       17.8076027863
 Pt        11.7299846912       12.6086028124       10.2895503252
 Pd        11.7330099310       15.4878908345       10.3006546641
 Pt        17.8087914005       16.3844459460       12.6210812299
 Pd        17.8053768650       16.3854049027       15.4743812459
 Pt        10.2901999373       16.3716384436       12.6201975253
 Pd        10.2998678059       16.3720434187       15.4827513597
 Pt        17.8128640307       11.7241839667       12.6102208034
 Pd        17.8078561079       11.7234463113       15.4842990640
 Pt        10.2890719129       11.7309091655       12.6074783573
 Pd        10.3017251090       11.7307214523       15.4937707957
 Pt        12.6207989527       17.8104816412       16.3849021836
 Pd        15.4746648553       17.8062386930       16.3849760880
 Pt        12.6161727214       10.2930449990       16.3750548466
 Pd        15.4884474248       10.3013037620       16.3738292295
 Pt        12.6150972769       17.8136458468       11.7223432409
 Pd        15.4773165930       17.8076061388       11.7208853640
 Pt        12.6077697797       10.2903099970       11.7300626315
 Pd        15.4937219203       10.3020145799       11.7300273496
 Pd        20.9835900590       14.0498764743        9.7849563267
 Pd        21.0430201981       14.0558442894       12.6232541722
 Pt        20.9659280996       14.0565633305       15.5134847759
 Pt        20.9372719744       14.0498859979       18.2627611428
 Pd         7.1120999290       14.0495027257        9.7780433794
 Pd         7.0620626962       14.0562825451       12.6434538245
 Pt         7.1416795848       14.0571140083       15.4818184899
 Pt         7.1548249633       14.0496830262       18.2720328059
 Pd         9.7860967665       20.9838136344       14.0508979090
 Pd        12.6210830392       21.0432837080       14.0519526751
 Pt        15.5164405961       20.9673551214       14.0517568436
 Pt        18.2611753221       20.9374320875       14.0511847696
 Pd         9.7776249621        7.1129500257       14.0517131455
 Pd        12.6456001161        7.0625499028       14.0506904125
 Pt        15.4782752592        7.1434021893       14.0509799454
 Pt        18.2729365033        7.1552317498       14.0518815786
 Pd        14.0514550052        9.7842387516       20.9833829573
 Pd        14.0510318916       12.6268066277       21.0427909301
 Pt        14.0517114782       15.5161086367       20.9667268097
 Pt        14.0513386725       18.2616347163       20.9365684877
 Pd        14.0515662963        9.7775015649        7.1124275542
 Pd        14.0506639237       12.6467118154        7.0624608438
 Pt        14.0516933910       15.4853016149        7.1417116330
 Pt        14.0517488971       18.2719275894        7.1554253587
 Pd        18.6946342369       12.5936636609       19.2618724289
 Pt        16.3448173408       11.2064334693       20.0696658586
 Pd        18.7052783080       15.5247788388       19.2596618441
 Pd        16.3932071416       14.0473984893       20.2130794948
 Pt        16.3392797132       16.9151999413       20.0867516248
 Pd        18.6689253421       12.5997086481        8.8345721896
 Pt        16.3505228714       11.2254470948        8.0227013608
 Pd        18.6801941973       15.5192956961        8.8344209696
 Pt        16.3778324049       14.0486957160        7.9155115874
 Pt        16.3425333484       16.8917642689        8.0040059156
 Pd         9.4059615254       12.5922464823       19.2541680446
 Pt        11.7489648714       11.2110869801       20.0719420376
 Pd         9.3951971686       15.5268771851       19.2527469032
 Pd        11.7050735759       14.0469174805       20.2084700179
 Pt        11.7570334300       16.9117263426       20.0882090150
 Pd         9.4313441865       12.5960306302        8.8391535836
 Pt        11.7459084948       11.2316529211        8.0223315955
 Pd         9.4203054557       15.5248526535        8.8376199724
 Pt        11.7201612859       14.0486174867        7.9199674682
 Pt        11.7557404625       16.8872426380        8.0022481731
 Pd        19.2595632622       18.6941729255       12.5825660049
 Pt        20.0593013668       16.3558044572       11.1951841641
 Pd        19.2601568941       18.7061580080       15.5211330484
 Pd        20.2177721219       16.3903397112       14.0534359350
 Pt        20.0868722533       16.3393212054       16.9152172366
 Pd         8.8359419636       18.6689972640       12.5889452023
 Pt         8.0338093897       16.3618829259       11.2145302347
 Pd         8.8342934912       18.6809638977       15.5160730745
 Pt         7.9104856789       16.3749388304       14.0547431170
 Pt         8.0043321187       16.3420300466       16.8919678805
 Pd        19.2534463143        9.4081899370       12.5886646447
 Pt        20.0711070159       11.7489571245       11.2107316831
 Pd        19.2573939687        9.3929838013       15.5135729838
 Pd        20.2048938292       11.7034761280       14.0521821533
 Pt        20.1013977976       11.7679785592       16.8990923697
 Pd         8.8391863613        9.4333431005       12.5922682887
 Pt         8.0227753037       11.7450617548       11.2308075187
 Pd         8.8336181236        9.4181629187       15.5114016451
 Pt         7.9237426954       11.7190457641       14.0544363907
 Pt         7.9888258369       11.7676038267       16.8758608862
 Pd        12.5819957121       19.2600955705       18.6948702586
 Pt        11.1955416903       20.0594536163       16.3566119228
 Pd        15.5215650171       19.2607794409       18.7068134791
 Pd        14.0536612868       20.2146024358       16.3908146246
 Pt        16.9146799082       20.0872968057       16.3402562176
 Pd        12.5967868699        8.8349936458       18.6672084511
 Pt        11.2251051621        8.0233019951       16.3498761202
 Pd        15.5064845523        8.8312163532       18.6820514251
 Pt        14.0547470395        7.9164542288       16.3802929559
 Pt        16.8809404949        7.9910717617       16.3285562455
 Pd        12.5798474724       19.2523062380        9.4056360081
 Pt        11.1995160015       20.0615484638       11.7378612324
 Pd        15.5236734743       19.2539763327        9.3928949298
 Pd        14.0525423045       20.2100552499       11.7070467832
 Pt        16.9112340972       20.0886424728       11.7560191353
 Pd        12.5927695580        8.8394606968        9.4336593398
 Pt        11.2313629289        8.0227315608       11.7466023388
 Pd        15.5110418031        8.8340321096        9.4187591537
 Pt        14.0543418047        7.9207668607       11.7182731014
 Pt        16.8762142590        7.9888917043       11.7687089183
 Pd        17.8624822183       10.2477356012       17.8552822780
 Pt        17.8361023968       17.8348116335       17.8350830008
 Pd        17.8608678557       10.2384050981       10.2468321307
 Pt        17.8359742337       17.8442565294       10.2706570121
 Pd        10.2397068782       10.2469528393       17.8619965075
 Pt        10.2694960136       17.8348947859       17.8445886009
 Pd        10.2394586661       10.2383200235       10.2386869197
 Pt        10.2681060308       17.8422577919       10.2594390834
     147
 i =        2, E =    -18188.9874466363
 Pd        14.0811496765       14.0788598200       14.0815526530
 Pt        16.2518129086       14.0158341862       12.6417907347
 Pd        16.2363102616       14.0169107203       15.4782664772
 Pt        11.8196225537       14.0167918010       12.6812186569
 Pd        11.8657095775       14.0151090264       15.4351554413
 Pt        12.6416550066       16.2490333180       14.0220178785
 Pd        15.4751508824       16.2351432405       14.0233070844
 Pt        12.6768787853       11.8114939876       14.0215271074
 Pd        15.4392846787       11.8611671007       14.0186869408
 Pt        14.0225950189       12.6367005555       16.2516773549
 Pd        14.0206631785       15.4744948402       16.2371979973
 Pt        14.0231976131       12.6747903143       11.8151796116
 Pd        14.0209727120       15.4297233836       11.8681773487
 Pt        18.5229899591       14.0652671361       11.3136491348
 Pd        18.5772959961       14.0570320322       14.0067352424
 Pt        18.3871074599       14.0455830823       16.7797152280
 Pd         9.5635297844       14.0647266544       11.2613446802
 Pt         9.5133988431       14.0517197978       14.0049475666
 Pd         9.7144859951       14.0479814237       16.8282567268
 Pt        11.3144080801       18.5258386627       14.0631794610
 Pd        14.0046759066       18.5809797339       14.0540002189
 Pt        16.7771267703       18.3912585086       14.0475145152
 Pd        11.2567819622        9.5688147190       14.0696901212
 Pt        14.0081284162        9.5161462337       14.0535385119
 Pd        16.8334507667        9.7213448557       14.0557408633
 Pt        14.0692297377       11.3124561235       18.5203734716
 Pd        14.0549072507       14.0090797009       18.5766562892
 Pt        14.0468248227       16.7773121600       18.3890408056
 Pd        14.0707943808       11.2605511730        9.5655719121
 Pt        14.0526217093       14.0099653457        9.5136813398
 Pd        14.0514610865       16.8273543713        9.7122964654
 Pt        16.3684696306       12.6497409170       17.7388675666
 Pd        16.3604658663       15.4311825875       17.7352436713
 Pt        16.3526602062       12.6384772977       10.3881332833
 Pd        16.3351393513       15.4515578217       10.3952803085
 Pt        11.7448406549       12.6413793993       17.7420479237
 Pd        11.7457099790       15.4158931623       17.7402938926
 Pt        11.7491910130       12.6303460251       10.3889954742
 Pd        11.7641310347       15.4404930349       10.3963626812
 Pt        17.7362447864       16.3570981839       12.6685039378
 Pd        17.7341948707       16.3647774672       15.4264058389
 Pt        10.3853041397       16.3308642333       12.6612346069
 Pd        10.3960857549       16.3391774926       15.4496615834
 Pt        17.7408360596       11.7472448491       12.6412285654
 Pd        17.7422231030       11.7412099962       15.4463765242
 Pt        10.3890081984       11.7529619025       12.6315922591
 Pd        10.3974291058       11.7485238953       15.4709542876
 Pt        12.6672722914       17.7396850424       16.3563732212
 Pd        15.4279584739       17.7355919474       16.3633325693
 Pt        12.6390638258       10.3906608357       16.3508878573
 Pd        15.4732031069       10.3984202257       16.3528630448
 Pt        12.6676426484       17.7414734659       11.7546131660
 Pd        15.4169030953       17.7403348054       11.7439619923
 Pt        12.6331942639       10.3902212329       11.7496387549
 Pd        15.4698565714       10.3967618119       11.7471398097
 Pd        20.8089963583       14.0493528595        9.9185011146
 Pd        20.9834150149       14.0669530169       12.6700315644
 Pt        20.8243344608       14.0707805072       15.4849880911
 Pt        20.7302915242       14.0498263691       18.0905110582
 Pd         7.2811899433       14.0487852694        9.9066981667
 Pd         7.1163957764       14.0683579524       12.7074412363
 Pt         7.2870850715       14.0742514676       15.4177302759
 Pt         7.3336370762       14.0497574395       18.1047900975
 Pd         9.9211435795       20.8080502918       14.0514714998
 Pd        12.6628403895       20.9817164253       14.0535806839
 Pt        15.4932459123       20.8234622030       14.0532077611
 Pt        18.0863943813       20.7287515258       14.0520774979
 Pd         9.9062535514        7.2823118498       14.0547383433
 Pd        12.7129451649        7.1171812579       14.0496265600
 Pt        15.4072153638        7.2884805554       14.0509856845
 Pt        18.1100150348        7.3280964118       14.0553352068
 Pd        14.0530167392        9.9166415606       20.8096930162
 Pd        14.0507460746       12.6822331719       20.9846127223
 Pt        14.0529387868       15.4936144998       20.8242806124
 Pt        14.0528481711       18.0874553140       20.7264791315
 Pd        14.0540754804        9.9057768052        7.2813517740
 Pd        14.0495460332       12.7188861191        7.1163025875
 Pt        14.0534921830       15.4310233133        7.2904057865
 Pt        14.0554113981       18.1024068364        7.3390828483
 Pd        18.6240047758       12.5837548860       19.2259320395
 Pt        16.2970875458       11.2853554625       19.9169558259
 Pd        18.6452707011       15.5680948237       19.2210618451
 Pd        16.3979622503       14.0518317730       20.2615529533
 Pt        16.3094626866       16.8666956346       19.9467294915
 Pd        18.5558033623       12.6081524385        8.8693918577
 Pt        16.3072534378       11.3326361657        8.1612838606
 Pd        18.5777600048       15.5478432587        8.8654176473
 Pt        16.3758850864       14.0561550729        7.8956702107
 Pt        16.3027109238       16.8025116052        8.1321385941
 Pd         9.4854994223       12.5756896080       19.2027044570
 Pt        11.7900706998       11.2962917230       19.9296793918
 Pd         9.4592088306       15.5774578069       19.2002425683
 Pd        11.7023977816       14.0508908105       20.2521193464
 Pt        11.7831941831       16.8607851887       19.9551627725
 Pd         9.5465228887       12.5976992092        8.8836007515
 Pt        11.7855217271       11.3489781123        8.1554321723
 Pd         9.5229443336       15.5628352121        8.8761621175
 Pt        11.7231746442       14.0571553222        7.9035612484
 Pt        11.7905589344       16.7899796072        8.1232007060
 Pd        19.2261075504       18.6240272577       12.5567754975
 Pt        19.8959234960       16.3243029749       11.2568953283
 Pd        19.2217015692       18.6475534772       15.5571675885
 Pd        20.2735485546       16.3939399963       14.0635551192
 Pt        19.9450667662       16.3112204048       16.8657390408
 Pd         8.8693504472       18.5566417817       12.5826953631
 Pt         8.1868562219       16.3338106986       11.3046765275
 Pd         8.8649516849       18.5794924459       15.5376459580
 Pt         7.8812677081       16.3727597787       14.0692147742
 Pt         8.1357350721       16.3039430701       16.8014938272
 Pd        19.2018913477        9.4926125914       12.5642873113
 Pt        19.9293715930       11.7901211822       11.2937322812
 Pd        19.2080144408        9.4559799083       15.5421528784
 Pd        20.2424058675       11.7015577300       14.0591222964
 Pt        19.9869228529       11.8104527372       16.8273988358
 Pd         8.8834580695        9.5508692705       12.5861626483
 Pt         8.1554702778       11.7845904130       11.3464748657
 Pd         8.8682249762        9.5187987208       15.5270199169
 Pt         7.9139635183       11.7240975327       14.0682750045
 Pt         8.0907086756       11.8184699364       16.7608111883
 Pd        12.5546988372       19.2276782131       18.6262042147
 Pt        11.2564947404       19.8963105533       16.3269238343
 Pd        15.5582542149       19.2237467904       18.6488306995
 Pd        14.0640217653       20.2652725510       16.3926136123
 Pt        16.8652186462       19.9471912706       16.3129676676
 Pd        12.5990205003        8.8699875217       18.5523231511
 Pt        11.3324650863        8.1629420873       16.3052023928
 Pd        15.5149918526        8.8603780281       18.5831666088
 Pt        14.0671029521        7.8982605070       16.3803104608
 Pt        16.7729568670        8.1039706978       16.2713234875
 Pd        12.5441895328       19.2015852288        9.4829284529
 Pt        11.2652824814       19.9084607682       11.7608350008
 Pd        15.5675554785       19.2025376412        9.4531208254
 Pd        14.0611282310       20.2572075253       11.7064112057
 Pt        16.8589007714       19.9558606757       11.7798469870
 Pd        12.5877821489        8.8840210838        9.5512806878
 Pt        11.3494022423        8.1565431846       11.7872402113
 Pd        15.5259677408        8.8693317410        9.5194535862
 Pt        14.0678483291        7.9045046799       11.7197270023
 Pt        16.7602488421        8.0932275441       11.8188786844
 Pd        17.8984500962       10.2242961241       17.8753378100
 Pt        17.8338319061       17.8310799436       17.8302671506
 Pd        17.8926370331       10.1972500827       10.2212647833
 Pt        17.8313581062       17.8578167809       10.2761777562
 Pd        10.2014570803       10.2217034162       17.8947371356
 Pt        10.2727007078       17.8300139544       17.8585727118
 Pd        10.2016424400       10.1976476415       10.1998316782
 Pt        10.2678843170       17.8506370170       10.2445980597
     147
 i =        3, E =    -18189.0110647532
 Pd        14.0521421876       14.0481149408       14.0527925510
 Pt        16.2665266083       14.0345273798       12.6495072441
 Pd        16.2206969609       14.0277984898       15.4450649185
 Pt        11.8034748657       14.0283705362       12.6746756109
 Pd        11.8518200416       14.0199049501       15.4297502263
 Pt        12.6495621031       16.2642073709       14.0406389185
 Pd        15.4412957921       16.2200757280       14.0359175661
 Pt        12.6743671665       11.7977315745       14.0358029428
 Pd        15.4315352135       11.8483296708       14.0269933902
 Pt        14.0412375360       12.6440150227       16.2670971435
 Pd        14.0322083903       15.4402253287       16.2218873108
 Pt        14.0377231311       12.6695661553       11.7986831592
 Pd        14.0290493695       15.4251230127       11.8540340878
 Pt        18.5076080753       14.0677164945       11.3091524056
 Pd        18.5589064542       14.0560156728       14.0260471460
 Pt        18.4302817409       14.0537767868       16.8044082837
 Pd         9.5845024327       14.0628025343       11.2600308705
 Pt         9.5319268168       14.0499247695       14.0214399565
 Pd         9.6860881820       14.0497063904       16.8432180743
 Pt        11.3136741956       18.5110450119       14.0608268295
 Pd        14.0235772290       18.5652237160       14.0577419271
 Pt        16.7969830536       18.4325232280       14.0508025544
 Pd        11.2544882888        9.5900519725       14.0663530029
 Pt        14.0242095111        9.5383407790       14.0546865046
 Pd        16.8508268906        9.6868307593       14.0593153886
 Pt        14.0664985185       11.3079189186       18.5059971752
 Pd        14.0582166130       14.0232840467       18.5577274578
 Pt        14.0500815112       16.8010855951       18.4296624818
 Pd        14.0676612678       11.2596220650        9.5847081739
 Pt        14.0546162736       14.0229811891        9.5340806697
 Pd        14.0529728985       16.8420267204        9.6889478901
 Pt        16.3490268427       12.6430581069       17.7243531323
 Pd        16.3301358204       15.4348205981       17.7208364287
 Pt        16.3440229096       12.6370119021       10.3989345148
 Pd        16.3177993298       15.4434678240       10.4098433177
 Pt        11.7612695193       12.6391049475       17.7304102828
 Pd        11.7725650635       15.4118530917       17.7319907661
 Pt        11.7489882292       12.6366284801       10.3979270881
 Pd        11.7721557200       15.4260822514       10.4048992956
 Pt        17.7240555342       16.3356323475       12.6619751222
 Pd        17.7213399117       16.3317759129       15.4365118501
 Pt        10.3966059034       16.3223407338       12.6593001345
 Pd        10.4096051781       16.3195321170       15.4487995081
 Pt        17.7287764658       11.7605030713       12.6429523698
 Pd        17.7344158823       11.7637690921       15.4420218436
 Pt        10.3988476026       11.7499576345       12.6429055475
 Pd        10.4026453787       11.7539189547       15.4596809073
 Pt        12.6611802263       17.7251550063       16.3350985880
 Pd        15.4370589892       17.7218223554       16.3321985145
 Pt        12.6420617977       10.4007149668       16.3419269048
 Pd        15.4704978143       10.4087412306       16.3360374896
 Pt        12.6624860708       17.7302667065       11.7723491762
 Pd        15.4180411067       17.7320481513       11.7720149363
 Pt        12.6451654834       10.3978603218       11.7495332100
 Pd        15.4587008963       10.4002978281       11.7566215501
 Pd        20.7583621381       14.0486239165        9.9386322789
 Pd        20.9532902662       14.0693674626       12.7017171612
 Pt        20.7970272599       14.0755596009       15.4054600079
 Pt        20.6794056723       14.0517327898       18.1156492605
 Pd         7.3227896472       14.0477594226        9.9324495483
 Pd         7.1446234126       14.0705415513       12.7187901391
 Pt         7.3059673893       14.0754521158       15.3878731139
 Pt         7.4015550104       14.0503183277       18.0800190534
 Pd         9.9398593548       20.7570412238       14.0489106919
 Pd        12.6956889442       20.9509980239       14.0529457541
 Pt        15.4097326982       20.7954517817       14.0526613618
 Pt        18.1151165584       20.6755607643       14.0481307790
 Pd         9.9267697355        7.3137394235       14.0529043819
 Pd        12.7247417271        7.1459241512       14.0484891436
 Pt        15.3832074590        7.3076564238       14.0493709585
 Pt        18.0813085696        7.3973538621       14.0507977077
 Pd        14.0501902849        9.9386181228       20.7591908194
 Pd        14.0504505118       12.7152340193       20.9566974375
 Pt        14.0518864457       15.4109814987       20.7945767299
 Pt        14.0493190520       18.1172077482       20.6737262291
 Pd        14.0521316748        9.9304581823        7.3180501575
 Pd        14.0483734633       12.7355827343        7.1425744594
 Pt        14.0513000585       15.3978486726        7.3128335153
 Pt        14.0515253574       18.0817332732        7.4057001413
 Pd        18.6077751599       12.5941486697       19.2063786153
 Pt        16.3163394002       11.2827977281       19.9368812975
 Pd        18.6241583869       15.5660071018       19.2105974365
 Pd        16.3996014321       14.0624411719       20.2511166954
 Pt        16.3309704745       16.8497039790       19.9241604362
 Pd        18.5457431047       12.6274618005        8.8898592465
 Pt        16.3111169635       11.3304473658        8.1530460962
 Pd        18.5594178444       15.5378703027        8.8799754237
 Pt        16.3782191391       14.0646380757        7.9086465859
 Pt        16.2990291750       16.7975029441        8.1577458807
 Pd         9.4951412011       12.5902611716       19.1780013490
 Pt        11.7846847676       11.2951277407       19.9450330738
 Pd         9.4700567873       15.5693151387       19.1839429861
 Pd        11.7056119737       14.0617817144       20.2455326417
 Pt        11.7689333325       16.8468227348       19.9359706048
 Pd         9.5540573499       12.6155867330        8.9055180545
 Pt        11.7942118213       11.3453195555        8.1478222601
 Pd         9.5378321552       15.5528496900        8.8908173409
 Pt        11.7283923660       14.0657524346        7.9117758122
 Pt        11.8000873415       16.7886609055        8.1435128283
 Pd        19.2101739472       18.6107104668       12.5692306426
 Pt        19.9152262233       16.3369352230       11.2567946835
 Pd        19.2092257020       18.6258734099       15.5538702470
 Pd        20.2617250822       16.4014316167       14.0659570588
 Pt        19.9235191938       16.3337515596       16.8494205904
 Pd         8.8901113021       18.5500998674       12.6069806724
 Pt         8.1778841626       16.3274752899       11.3027110669
 Pd         8.8801540230       18.5605533316       15.5258816119
 Pt         7.8968645291       16.3848899578       14.0624874366
 Pt         8.1616551268       16.3011310941       16.7996850438
 Pd        19.1780002544        9.4999347874       12.5798210810
 Pt        19.9447083282       11.7854689626       11.2913385530
 Pd        19.1881919225        9.4715362776       15.5338332019
 Pd        20.2358847411       11.7097621056       14.0613483371
 Pt        19.9659942936       11.7889234891       16.8144846754
 Pd         8.9037799743        9.5585322908       12.6025889909
 Pt         8.1463299769       11.7974726139       11.3431365578
 Pd         8.8809031075        9.5433118773       15.5219938402
 Pt         7.9218912903       11.7363417496       14.0608294275
 Pt         8.1116104907       11.8197487102       16.7612195478
 Pd        12.5670611426       19.2121023375       18.6120963586
 Pt        11.2532587983       19.9153846025       16.3390946949
 Pd        15.5553987273       19.2114575972       18.6262156689
 Pd        14.0663838129       20.2543045652       16.3967053629
 Pt        16.8507875176       19.9258988014       16.3345279360
 Pd        12.6169125475        8.8894546290       18.5447243613
 Pt        11.3317875951        8.1559220237       16.3094244749
 Pd        15.5074922490        8.8754411947       18.5602813481
 Pt        14.0605822559        7.9121372743       16.3796059152
 Pt        16.7715731177        8.1322717200       16.2766365359
 Pd        12.5606979796       19.1784451392        9.4888932944
 Pt        11.2649989030       19.9235263250       11.7618252398
 Pd        15.5603255340       19.1849798062        9.4668086738
 Pd        14.0629678133       20.2500480969       11.7075868652
 Pt        16.8472190286       19.9378741706       11.7653669175
 Pd        12.6047530308        8.9047584283        9.5563233068
 Pt        11.3473278326        8.1493291019       11.7961217170
 Pd        15.5198643260        8.8825693066        9.5414727100
 Pt        14.0603717460        7.9127755903       11.7274876683
 Pt        16.7633639946        8.1163802018       11.8183295840
 Pd        17.8914249864       10.2260033094       17.8670312115
 Pt        17.8220726733       17.8210175139       17.8196495779
 Pd        17.8853991965       10.1974902653       10.2212279628
 Pt        17.8181782596       17.8435155022       10.2792717872
 Pd        10.2026752831       10.2217458110       17.8873524913
 Pt        10.2771504513       17.8188141135       17.8445578516
 Pd        10.2019632971       10.1979234155       10.1998533858
 Pt        10.2703111547       17.8369172631       10.2510688719
     147
 i =        4, E =    -18189.0173044283
 Pd        14.0439256646       14.0402494013       14.0441916663
 Pt        16.2617680244       14.0352921831       12.6638277971
 Pd        16.2408189202       14.0280084222       15.4513637341
 Pt        11.8057766913       14.0282583824       12.6727826842
 Pd        11.8453282975       14.0172034445       15.4351495783
 Pt        12.6631223287       16.2563165819       14.0433953822
 Pd        15.4472324193       16.2374250535       14.0370679685
 Pt        12.6706841468       11.7981369393       14.0381855483
 Pd        15.4389765320       11.8390841175       14.0271165420
 Pt        14.0455167100       12.6565022716       16.2627216046
 Pd        14.0326898178       15.4449554929       16.2398819020
 Pt        14.0414708387       12.6661348297       11.8004454420
 Pd        14.0277090068       15.4296047272       11.8506693673
 Pt        18.5090500191       14.0722153935       11.3085812991
 Pd        18.5457709286       14.0536575203       14.0334310148
 Pt        18.4055045599       14.0582996433       16.8062245251
 Pd         9.5895047167       14.0624072091       11.2622883934