     147
 i =        1, E =    -11843.1177892952
 Au        14.4435915983       14.4423346450       14.4406569184
 Pd        16.8623755590       14.4153577256       12.8874497230
 Pd        16.8247433769       14.4052529533       15.8874315326
 Au        11.9254510950       14.4175381931       12.8797902272
 Au        11.9393295451       14.4181925911       15.9060146125
 Pd        12.8896113463       16.8327153700       14.4135388475
 Pd        15.9056179234       16.8202439765       14.4093239325
 Au        12.8517905567       11.9229250464       14.4166870245
 Au        15.9063033017       11.9818143706       14.4174026786
 Pd        14.4134372171       12.8857318783       16.8607044356
 Pd        14.4068117819       15.8877823087       16.8223313988
 Au        14.4175379114       12.8796100826       11.9262363043
 Au        14.4184023235       15.9061376322       11.9399502382
 Pd        19.2479590942       14.3586472953       11.4030866487
 Pd        19.2605350629       14.3994059390       14.3771494727
 Au        19.2715332492       14.4454927416       17.4101019326
 Au         9.5526544178       14.3911071213       11.4182743757
 Pd         9.5162478024       14.4163260570       14.4010103487
 Pd         9.5201957300       14.3577551865       17.3998947712
 Au        11.3937900650       19.2351418770       14.3529112520
 Au        14.4014845338       19.2686596686       14.3759584630
 Pd        17.4217529042       19.2721546742       14.4365721933
 Pd        11.3988899578        9.5400225925       14.3915656546
 Au        14.3660207492        9.5223015698       14.4105973183
 Au        17.4241593834        9.5148486700       14.3472103698
 Pd        14.3616682410       11.4035767169       19.2526120992
 Pd        14.3998446277       14.3778463227       19.2620711810
 Au        14.4462016146       17.4096026853       19.2711457073
 Au        14.3905560318       11.4169112500        9.5536255205
 Pd        14.4159366284       14.4050348665        9.5138349181
 Pd        14.3569417919       17.4009967225        9.5235050771
 Au        16.7758707954       12.8903672611       18.3097145637
 Au        16.8234238919       15.8961025928       18.3582244053
 Pd        16.8650733607       12.9060511272       10.4546688306
 Pd        16.8389372065       15.8805155881       10.4579732775
 Au        11.9737857436       12.8711782959       18.3557689002
 Au        11.9776573100       15.8859480402       18.3232047849
 Pd        11.9571685156       12.8644569864       10.4479399966
 Pd        11.9526095532       15.9331260864       10.4243791336
 Au        18.2998899196       16.8087909816       12.8765263474
 Au        18.3488902439       16.8380501660       15.8848960538
 Pd        10.4486094082       16.8527768031       12.8990519994
 Pd        10.4490492345       16.8251048637       15.8778764405
 Au        18.3583075890       11.9735878283       12.8392470620
 Au        18.3303984664       11.9942439075       15.8959031129
 Pd        10.4562978804       11.9495511300       12.8699324819
 Pd        10.4291250983       11.9560026084       15.9034699116
 Au        12.8884645373       18.2987329386       16.8094822020
 Au        15.9157091111       18.3544712082       16.8236610718
 Pd        12.9027276068       10.4650967780       16.8463683762
 Pd        15.8776291693       10.4726101470       16.8524997974
 Au        12.8558478662       18.3563463438       11.9246991924
 Au        15.9215584735       18.3322119308       11.9611175495
 Pd        12.8565152342       10.4513324192       11.9536297465
 Pd        15.9302767408       10.4322529213       11.9319188295
 Au        21.6687206454       14.3830055370        9.9124100540
 Pd        21.6720565135       14.4026761325       12.8896602810
 Au        21.7146394114       14.4206630504       15.9000681117
 Pd        21.6449537171       14.3898261826       18.8808826213
 Au         7.1081524014       14.3940757492        9.8980029599
 Pd         7.1266362593       14.4001223163       12.9057827831
 Au         7.1111394662       14.3943785538       15.9125839768
 Pd         7.1623931381       14.4074716813       18.8757404118
 Au         9.9030524440       21.6898465614       14.3859366807
 Pd        12.8904963418       21.6880808964       14.3961011115
 Au        15.9242432184       21.7121129727       14.4080802513
 Pd        18.8723312072       21.6314628223       14.3939795268
 Au         9.9147764189        7.1294757966       14.3958780557
 Pd        12.8755337319        7.1250450933       14.3898265893
 Au        15.9179564399        7.0697689590       14.3835075289
 Pd        18.8795157768        7.1513367064       14.4086122977
 Au        14.3863900753        9.9136832679       21.6672635047
 Pd        14.4054274662       12.8875601393       21.6721431203
 Au        14.4178651693       15.9005233835       21.7147383231
 Pd        14.3897791198       18.8804789515       21.6461223825
 Au        14.3947320427        9.8990445812        7.1082087758
 Pd        14.3977022531       12.9033079517        7.1267225860
 Au        14.3937514949       15.9119756751        7.1103026663
 Pd        14.4061051382       18.8756882916        7.1614218481
 Au        19.3041972516       12.9122242754       19.8727074487
 Au        16.8270791878       11.3934399568       20.7998539234
 Pd        19.2685905695       15.8982931089       19.8197912512
 Au        16.8426796436       14.4125292906       20.8410247646
 Pd        16.8210568769       17.4091396188       20.7508184712
 Pd        19.2446023992       12.8998218576        8.9905831385
 Au        16.8582597909       11.4045464529        8.0331756062
 Au        19.2514371753       15.9003104392        8.9580292532
 Pd        16.8329951645       14.3975033555        8.0332045390
 Au        16.8261451573       17.4053331041        8.0330029289
 Pd         9.5267850782       12.9111459433       19.7981962556
 Pd        12.0060609687       11.3912648177       20.7522924693
 Au         9.4991831519       15.8818431922       19.8504342936
 Pd        11.9469346535       14.3820671186       20.8313666551
 Au        11.9603135957       17.4297638226       20.8096137664
 Au         9.5390751845       12.8751410442        8.9543390414
 Pd        11.9729358479       11.4055056996        8.0566209866
 Pd         9.5613115196       15.9106308382        8.9763156942
 Au        11.9574423678       14.3989641314        7.9985970819
 Pd        11.9856081534       17.3981583567        8.0804532784
 Au        19.8434657995       19.3010113125       12.9143647138
 Au        20.7866463963       16.8320022528       11.3841245242
 Pd        19.8073055639       19.2751258098       15.8899542682
 Au        20.8416476832       16.8412437851       14.4140875536
 Pd        20.7507378280       16.8176626319       17.4099285997
 Pd         8.9808871320       19.2422288866       12.8937572493
 Au         8.0337220477       16.8583002273       11.4035310415
 Au         8.9287225816       19.2517719595       15.8980977533
 Pd         8.0270758071       16.8336632212       14.3999512174
 Au         8.0217221811       16.8199815491       17.3998982958
 Pd        19.8091920586        9.5353068989       12.8927268106
 Pd        20.7426734521       11.9997320473       11.3902620480
 Au        19.8728748258        9.5028425595       15.8974242359
 Pd        20.8345402625       11.9477656747       14.3861511881
 Au        20.8084435297       11.9590205761       17.4273584581
 Au         8.9727698776        9.5374651890       12.8909990763
 Pd         8.0558998807       11.9734943417       11.4024081630
 Pd         8.9876203550        9.5555471694       15.8941805324
 Au         7.9994272354       11.9565754205       14.4003387361
 Pd         8.0743982600       11.9931818180       17.4021726025
 Au        12.9139467006       19.8718553770       19.3001556399
 Au        11.3920329478       20.8132377235       16.8481801834
 Pd        15.8941234794       19.8193378791       19.2679887713
 Au        14.4133777839       20.8541326240       16.8664260348
 Pd        17.4137730097       20.7482480217       16.8010972768
 Pd        12.9017055794        8.9912886385       19.2628126840
 Au        11.3926739875        8.0331365214       16.8294517516
 Au        15.8916831557        8.9534715445       19.2639726076
 Pd        14.3932772824        7.9855558990       16.8630693483
 Au        17.4133568632        8.0104633042       16.8425554310
 Pd        12.9060731823       19.7995758511        9.5426492021
 Pd        11.4013879569       20.7550732276       11.9772474115
 Au        15.8874935756       19.8473876688        9.5121005331
 Pd        14.3919973547       20.8057897734       11.9507167599
 Au        17.4223534019       20.7832934245       11.9786224590
 Au        12.8763292813        8.9532005223        9.5408211699
 Pd        11.4033752998        8.0631397590       11.9851628354
 Pd        15.9096511943        8.9759257483        9.5616435339
 Au        14.3989780800        7.9872887457       11.9380268426
 Pd        17.3960203074        8.0725235294       11.9671974898
 Au        18.3689005370       10.4082283210       18.3784251962
 Au        18.3855348378       18.3849812351       18.3879618040
 Pd        18.3291718415       10.4620291706       10.4663674312
 Pd        18.3517474354       18.3491509999       10.4389423522
 Au        10.4259937648       10.4407456483       18.3575850634
 Au        10.4081172123       18.3783187755       18.3705823297
 Pd        10.4737689120       10.4732362814       10.4751703501
 Pd        10.4675075498       18.3262094911       10.4590081847
     147
 i =        2, E =    -11843.3744383919
 Au        14.4578753823       14.4616573835       14.4530161968
 Pd        16.8245347709       14.4184431040       12.9166441718
 Pd        16.7775825333       14.4371188879       15.8303579072
 Au        11.9745430034       14.4496883416       12.9023123547
 Au        11.9588105180       14.4196087742       15.8528090001
 Pd        12.9264435005       16.7554443283       14.4022017803
 Pd        15.8737418319       16.7628682844       14.4307409918
 Au        12.8249357228       11.9685025443       14.4407402715
 Au        15.8695632758       12.0397684423       14.4186721179
 Pd        14.3969355818       12.9170578805       16.8111634656
 Pd        14.4356343294       15.8289992773       16.7680351710
 Au        14.4494736052       12.9074293375       11.9746804760
 Au        14.4284087075       15.8665192952       11.9630081236
 Pd        19.0948636594       14.3107316980       11.4935816790
 Pd        19.1685442974       14.3814739787       14.3361570240
 Au        19.1163332138       14.4727973314       17.3128185950
 Au         9.6801450460       14.3875891394       11.5070285379
 Pd         9.5886551373       14.4455936689       14.4085415251
 Pd         9.6608308742       14.3124088458       17.2979700992
 Au        11.4664492493       19.0746187142       14.3124502118
 Au        14.4099901752       19.1819167944       14.3305097364
 Pd        17.3458745327       19.1214593935       14.4740891812
 Pd        11.4805644624        9.6836784305       14.3945141101
 Au        14.3350675627        9.5843082729       14.4469986142
 Au        17.3381845252        9.6650270051       14.3089017451
 Pd        14.3067644996       11.4934068322       19.1008301607
 Pd        14.3840236827       14.3428956868       19.1690456151
 Au        14.4657395051       17.3088222288       19.1153070723
 Au        14.3942106884       11.5068903537        9.6837120631
 Pd        14.4444718346       14.4229459731        9.5839299781
 Pd        14.3015957043       17.3008204824        9.6546896694
 Au        16.6779434336       12.8923516633       18.2319717491
 Au        16.7580260105       15.8375740185       18.2841850302
 Pd        16.8618682083       12.9694255394       10.5298930064
 Pd        16.7985453018       15.7992695894       10.5221333113
 Au        12.0373795722       12.8724833534       18.2894072793
 Au        12.0261779814       15.8436016213       18.2758534126
 Pd        12.0010741661       12.8627486893       10.5270806988
 Pd        11.9971460025       15.9242886307       10.4695882196
 Au        18.2055092532       16.7459612669       12.8637838974
 Au        18.2746130849       16.7963188658       15.8137488196
 Pd        10.5131074946       16.8236156943       12.9425160136
 Pd        10.4923172547       16.7690842008       15.8071356578
 Au        18.2945915024       12.0457967608       12.8185020405
 Au        18.2991880799       12.0662984921       15.8615238556
 Pd        10.5380106568       11.9828811825       12.8659544502
 Pd        10.4898788691       12.0056761717       15.8509771882
 Au        12.8884376185       18.1983281137       16.7521534818
 Au        15.8903243396       18.2835086400       16.7496937169
 Pd        12.9550741742       10.5305751137       16.8282221320
 Pd        15.7941772885       10.5294561687       16.8360163772
 Au        12.8595059081       18.2693170879       11.9290207471
 Au        15.9162040783       18.2673314851       11.9929136840
 Pd        12.8434486040       10.5421663929       11.9959535193
 Pd        15.9147803559       10.4961129901       11.9494272272
 Au        21.4705613295       14.3488273717       10.0439995829
 Pd        21.4774266657       14.4007164964       12.9211765194
 Au        21.6100350933       14.4385409271       15.8351110841
 Pd        21.4238606140       14.3548601339       18.7490755179
 Au         7.2757439832       14.3852034106       10.0099810084
 Pd         7.3089299235       14.4069602921       12.9632044902
 Au         7.2380449685       14.4076575284       15.8707646054
 Pd         7.4055741730       14.4422057179       18.7388740865
 Au        10.0247565716       21.5256658382       14.3600552938
 Pd        12.9159029836       21.5226240438       14.3865675608
 Au        15.9058536285       21.6098521534       14.4071414189
 Pd        18.7267881443       21.3824422299       14.3701974431
 Au        10.0408795539        7.3063817558       14.3970513240
 Pd        12.8844986767        7.2906155091       14.3929904808
 Au        15.8826163007        7.1495214839       14.3793979935
 Pd        18.7518454200        7.3612931145       14.4416333090
 Au        14.3591730633       10.0434016718       21.4736882698
 Pd        14.4157811427       12.9119543435       21.4886664311
 Au        14.4304702299       15.8386217243       21.6139652600
 Pd        14.3486499710       18.7499556878       21.4301751878
 Au        14.3917420615       10.0106222283        7.2735260713
 Pd        14.4022683372       12.9566186839        7.3076102407
 Au        14.3939167694       15.8801471712        7.2414813903
 Pd        14.4276054033       18.7300077763        7.4114218481
 Au        19.2479186007       12.9618994435       19.8181870804
 Au        16.7817779701       11.4691882947       20.7213971672
 Pd        19.1950884326       15.8709851220       19.7154912334
 Au        16.8218296008       14.4023732928       20.8607715801
 Pd        16.8126658819       17.3764085180       20.6588618378
 Pd        19.1134920052       12.9230793577        9.1322753849
 Au        16.8628390324       11.4890807926        8.1576592265
 Au        19.1263589464       15.8697291992        9.0550638581
 Pd        16.7854501536       14.3922762814        8.1558663138
 Au        16.7730822048       17.3350139149        8.1653429200
 Pd         9.6156946752       12.9730798826       19.6426860522
 Pd        12.1180040786       11.4407094254       20.6181885375
 Au         9.5520043735       15.8174854096       19.7671503515
 Pd        11.9577943670       14.3600399893       20.8161059723
 Au        11.9900081973       17.3959910932       20.7388687465
 Au         9.6297446469       12.8653240853        9.0417268967
 Pd        12.0062315390       11.4754890681        8.1963818950
 Pd         9.6980268850       15.8918867493        9.1146187547
 Au        11.9813722153       14.3878526862        8.0489606891
 Pd        12.0254253532       17.3433270140        8.2595108569
 Au        19.7502726617       19.2437037372       12.9643067308
 Au        20.6807591781       16.7899029681       11.4400046607
 Pd        19.6756627990       19.2081551216       15.8443266953
 Au        20.8571924604       16.8141808635       14.4124163896
 Pd        20.6359630811       16.7926118551       17.3702836817
 Pd         9.0970058166       19.1071963613       12.9020818136
 Au         8.1556064040       16.8634017677       11.4828469627
 Au         8.9739333179       19.1252139391       15.8591296107
 Pd         8.1329191531       16.7866257664       14.3995964326
 Au         8.1279669917       16.7581289712       17.3190757591
 Pd        19.6872517408        9.6452342496       12.9049216920
 Pd        20.6012538715       12.1015739008       11.4430612450
 Au        19.8318201759        9.5712174314       15.8582714566
 Pd        20.8013819961       11.9680283913       14.3679874495
 Au        20.7403308302       11.9853796167       17.3844891627
 Au         9.0710635456        9.6387499124       12.9003009418
 Pd         8.2125887436       12.0175824331       11.4740247135
 Pd         9.1268354690        9.6658947807       15.8485673067
 Au         8.0453656196       11.9861600689       14.3670562746
 Pd         8.2081178896       12.0330324618       17.3657926469
 Au        12.9653173592       19.8223742692       19.2422153500
 Au        11.4664196113       20.7509372134       16.8248188288
 Pd        15.8590030323       19.7230441857       19.1879911840
 Au        14.4084479030       20.8852919543       16.8759546354
 Pd        17.3888356324       20.6401250278       16.7350272433
 Pd        12.9381701952        9.1390388960       19.1473887993
 Au        11.4824998224        8.1573661783       16.7928108626
 Au        15.8352096533        9.0338303980       19.1481419902
 Pd        14.3857270674        8.0682876255       16.8555253340
 Au        17.3356738795        8.1091613820       16.8135639691
 Pd        12.9556567629       19.6491182589        9.6404630597
 Pd        11.4759460273       20.6386120637       12.0304808639
 Au        15.8291518211       19.7657418389        9.5803787929
 Pd        14.3827556128       20.7378409372       11.9692836803
 Au        17.3768441228       20.6841632441       12.0334883687
 Au        12.8738123932        9.0352701697        9.6303650036
 Pd        11.4641715966        8.1970791561       12.0249766641
 Pd        15.8900416206        9.1079433667        9.6896337051
 Au        14.3970254993        8.0189538708       11.9308406934
 Pd        17.3364631809        8.2174600435       11.9463555027
 Au        18.3542913328       10.3963477840       18.3741178075
 Au        18.4077149092       18.3930084980       18.4032940412
 Pd        18.2572193156       10.5216093873       10.5100025414
 Pd        18.3108111841       18.2988028721       10.4656737170
 Au        10.4436788758       10.4501949496       18.3415189077
 Au        10.3920633739       18.3741072491       18.3572429585
 Pd        10.5458746576       10.5606761650       10.5554718995
 Pd        10.5104021990       18.2407920022       10.5085944294
     147
 i =        3, E =    -11843.4685516539
 Au        14.4261694965       14.4215246759       14.4109881750
 Pd        16.6944280663       14.4091701659       12.9932813572
 Pd        16.7184380609       14.4407645893       15.7619450563
 Au        12.1017181365       14.4693064480       12.9487752761
 Au        12.0548830824       14.4222956595       15.7908112828
 Pd        12.9967157924       16.6580036690       14.3797550856
 Pd        15.8128824157       16.6972143139       14.4137347185
 Au        12.8937008699       12.1041326391       14.4531183966
 Au        15.8128246008       12.1057884352       14.4272526054
 Pd        14.3613261610       12.9863696461       16.6673570063
 Pd        14.4332681389       15.7613704610       16.7003044753
 Au        14.4738430434       12.9751724005       12.0977452372
 Au        14.4366733006       15.8001618294       12.0623094435
 Pd        18.9376674486       14.3724612002       11.5695157936
 Pd        19.0714532814       14.3656210936       14.3259387675
 Au        18.9596165334       14.4857846293       17.1995970988
 Au         9.8077163145       14.3968785725       11.5704400147
 Pd         9.7101214446       14.4414120852       14.4112651498
 Pd         9.8227476987       14.2816313358       17.1617453169
 Au        11.5492623538       18.9332916522       14.3358471424
 Au        14.4214691479       19.0696113771       14.3071145608
 Pd        17.2134545010       18.9353131116       14.4757410921
 Pd        11.5354335988        9.8083035511       14.3846370802
 Au        14.3512566400        9.6901765280       14.4536081525
 Au        17.2153804185        9.8237694145       14.2985577851
 Pd        14.3344388635       11.5805536621       18.9308890816
 Pd        14.3468424472       14.3372968841       19.0867071143
 Au        14.4860558285       17.2047206984       18.9747053900
 Au        14.3996061299       11.5769496423        9.7982861220
 Pd        14.4401472698       14.4361336444        9.7123176858
 Pd        14.3091195376       17.1616125745        9.8228945603
 Au        16.6419981860       12.8891285081       18.1568238523
 Au        16.7319472492       15.7951388110       18.2644662409
 Pd        16.7751660935       13.0216239993       10.6414960531
 Pd        16.7332611958       15.7407724306       10.6228052888
 Au        12.0544672042       12.9229201611       18.1920665776
 Au        12.0637928580       15.7944593872       18.2475853762
 Pd        12.0778755622       12.9218700283       10.6276080765
 Pd        12.0740192510       15.8342926099       10.5812716519
 Au        18.1384827766       16.7121502321       12.8614350921
 Au        18.2524035357       16.7571912372       15.7606502785
 Pd        10.6190803309       16.7373964057       12.9772324349
 Pd        10.5836375978       16.7081439432       15.7668646056
 Au        18.1766803446       12.0748939851       12.8953331448
 Au        18.2675225398       12.1152344814       15.8274881944
 Pd        10.6409285742       12.0667194910       12.9102228002
 Pd        10.5195456923       12.0568995152       15.8214062189
 Au        12.8825930208       18.1114226311       16.7076174307
 Au        15.8545565630       18.2500983557       16.7210324670
 Pd        12.9866856005       10.6304305344       16.7679734830
 Pd        15.7400684996       10.6120600136       16.7763507475
 Au        12.9014760652       18.1348104225       12.0037550165
 Au        15.8984178960       18.1836056437       12.0247269637
 Pd        12.8875207878       10.6296462184       12.0708740772
 Pd        15.8540284846       10.5947155743       12.0281612429
 Au        21.2871968647       14.3359278912       10.1471039327
 Pd        21.3113869909       14.3848233949       12.9748889372
 Au        21.4888282100       14.4425636682       15.7661860015
 Pd        21.2376742368       14.3503643342       18.6211607848
 Au         7.4559471944       14.3787760154       10.1320780962
 Pd         7.4556108259       14.4158155576       13.0124295373
 Au         7.3422349493       14.3882730290       15.8280369172
 Pd         7.5860770700       14.4341622124       18.6020223333
 Au        10.1434562755       21.3443159193       14.3386757956
 Pd        12.9571886222       21.3664409706       14.3799021202
 Au        15.8547989781       21.5043804897       14.4247657882
 Pd        18.6083959974       21.2047298259       14.3842498014
 Au        10.1618705189        7.4869996579       14.3872242736
 Pd        12.9030896540        7.4237842987       14.3790400072
 Au        15.8346685646        7.2506408677       14.3634745660
 Pd        18.6226732008        7.5583133967       14.4545992062
 Au        14.3572576595       10.1440676613       21.3061649576
 Pd        14.4026504229       12.9692714316       21.3266430493
 Au        14.4336470432       15.7694231933       21.4884342373
 Pd        14.3469496000       18.6171293647       21.2363287053
 Au        14.3868236289       10.1348918720        7.4556825383
 Pd        14.4004314036       13.0018893542        7.4608128531
 Au        14.3818344757       15.8320479742        7.3372781662
 Pd        14.4256512510       18.6124767962        7.5884353972
 Au        19.1402405009       12.9957398767       19.7629066533
 Au        16.7581469852       11.5430451751       20.6288171559
 Pd        19.0833341866       15.8684131943       19.6064114390
 Au        16.8209537715       14.4242456478       20.8594483228
 Pd        16.7834259291       17.3160059091       20.5008188038
 Pd        19.0206552575       12.9280437570        9.2236466764
 Au        16.8583055951       11.5607811647        8.2624405527
 Au        19.0306541494       15.8433764700        9.1424153133
 Pd        16.7474038894       14.3815553149        8.2318272115
 Au        16.7418404416       17.2593241449        8.3028034198
 Pd         9.7297506449       13.0015767912       19.5175608547
 Pd        12.1546422031       11.5200377451       20.5222063885
 Au         9.6765005359       15.7919395025       19.7115364159
 Pd        11.9941820028       14.3396465443       20.7338908590
 Au        11.9941555103       17.3194949154       20.6448699640
 Au         9.7168598812       12.8574553924        9.1166986336
 Pd        12.0472365395       11.5429627333        8.3344613629
 Pd         9.8117109841       15.8730200088        9.2238441103
 Au        12.0020524880       14.3747054158        8.1075438060
 Pd        12.0300484691       17.2936450728        8.3982211651
 Au        19.6849680016       19.1228328736       12.9801617835
 Au        20.5668273748       16.7621759707       11.5030743040
 Pd        19.5698025951       19.1118146335       15.8440172370
 Au        20.8508610095       16.8090278384       14.4228732001
 Pd        20.4825731121       16.7704713519       17.3093507561
 Pd         9.1857758864       19.0112671803       12.9009829815
 Au         8.2477746086       16.8549660172       11.5453814071
 Au         9.0249847475       19.0228288457       15.8193527075
 Pd         8.1933725974       16.7496549370       14.3840624082
 Au         8.2361734149       16.7251718675       17.2421005109
 Pd        19.5848569981        9.7650250408       12.9040709594
 Pd        20.5216924082       12.1362143841       11.5067922187
 Au        19.7899092774        9.6796349823       15.8212119830
 Pd        20.7258723950       12.0000568147       14.3476665202
 Au        20.6580418903       11.9902156311       17.3116911845
 Au         9.1609542166        9.7197155345       12.9083386564
 Pd         8.3447757342       12.0529643124       11.5357723623
 Pd         9.2521696699        9.8031653974       15.8195514535
 Au         8.0993000506       12.0095481773       14.3681718590
 Pd         8.3849915899       12.0698038611       17.2882480396
 Au        13.0009777228       19.7744481713       19.1408766780
 Au        11.5472143170       20.6681100381       16.8009616079
 Pd        15.8494338837       19.6033018875       19.0737965923
 Au        14.4318315922       20.8939662558       16.8791836580
 Pd        17.3334297059       20.5000435100       16.6919643416
 Pd        12.9483796955        9.2361812218       19.0375697088
 Au        11.5714482537        8.2709893239       16.7744679479
 Au        15.7923324963        9.1018683462       19.0602408202
 Pd        14.3739763204        8.1361384211       16.8390505758
 Au        17.2488075392        8.2195938220       16.7803065183
 Pd        12.9750741243       19.5574299337        9.7163559858
 Pd        11.5496223145       20.5424645283       12.0603210036
 Au        15.8050887543       19.7059843391        9.6880897619
 Pd        14.3719244777       20.6727873732       11.9822425859
 Au        17.3070836097       20.5799228229       12.0438699071
 Au        12.8648100413        9.1156372521        9.7252532156
 Pd        11.5430266591        8.3572682541       12.0762209316
 Pd        15.8758000564        9.2110532332        9.7866487798
 Au        14.3887368898        8.0637064316       11.9435181862
 Pd        17.2737429842        8.3745280955       11.9425895738
 Au        18.3332918964       10.4050674139       18.3566517695
 Au        18.3993874421       18.3828466056       18.4051767310
 Pd        18.2056549476       10.5525255160       10.5391381317
 Pd        18.2668025330       18.2508809824       10.4963524079
 Au        10.4429372968       10.4808266147       18.3061689230
 Au        10.3928185206       18.3585665440       18.3382237107
 Pd        10.5943429399       10.6013084924       10.5991577179
 Pd        10.5306746996       18.1798680938       10.5418562422
     147
 i =        4, E =    -11843.5021739757
 Au        14.4266379851       14.4227691683       14.4273967838
 Pd        16.7194463611       14.4164064126       13.0042123664
 Pd        16.7042509718       14.4379342401       15.7804312410
 Au        12.0915547484       14.4308203638       12.9418089581
 Au        12.0837742627       14.4333202935       15.8109622169
 Pd        13.0047930870       16.6903300887       14.4000244853
 Pd        15.8135410174       16.6853399393       14.4225724127
 Au        12.8984013803       12.0826157358       14.4347368058
 Au        15.8175182883       12.1017699004       14.4501820318
 Pd        14.3781106129       12.9932198125       16.6915250995
 Pd        14.4346381447       15.7786222452       16.7047076124
 Au        14.4377764339       12.9416692996       12.0794920174
 Au        14.4438080224       15.8160370674       12.0932782166
 Pd        18.9490203486       14.3859771992       11.5574326430
 Pd        19.0583960821       14.3803900872       14.3427129388
 Au        18.9933802871       14.4438497057       17.2192287659
 Au         9.8105550332       14.4024418344       11.5582415465