     147
 i =        1, E =    -11749.1266845349
 Au        14.3729927664       14.3720411043       14.3730564999
 Pd        16.8604758275       14.3892709038       12.8680264450
 Au        16.8391103972       14.3763337866       15.9236631372
 Pd        11.9482203874       14.3849665753       12.8971260523
 Au        11.9751107940       14.3767291457       15.8759132018
 Pd        12.8681365301       16.8607353480       14.3883455452
 Au        15.9228961180       16.8390728403       14.3762299545
 Pd        12.8959717532       11.9495157534       14.3834105768
 Au        15.8764591494       11.9750312910       14.3768139495
 Pd        14.3882657050       12.8687716873       16.8602613828
 Au        14.3759559518       15.9224564130       16.8391383825
 Pd        14.3839730601       12.8977641277       11.9487618444
 Au        14.3762428387       15.8756094432       11.9749439404
 Pd        19.2470820138       14.3919472417       11.4089289596
 Au        19.2701582671       14.4032499691       14.3833668925
 Pd        19.3059342538       14.3912366291       17.3979812919
 Au         9.5679343823       14.3866406437       11.4473667280
 Pd         9.5112580447       14.4007672493       14.3957552694
 Au         9.4770835849       14.3903272938       17.3789039794
 Pd        11.4101355585       19.2466004889       14.3921806139
 Au        14.3837050209       19.2698238820       14.4008540748
 Pd        17.3973546924       19.3049713586       14.3888478449
 Au        11.4478298006        9.5682286032       14.3869620261
 Pd        14.3964677619        9.5101783376       14.4008002713
 Au        17.3782431749        9.4767968332       14.3895442115
 Pd        14.3934512380       11.4075299085       19.2478064815
 Au        14.4013770474       14.3835639021       19.2699388711
 Pd        14.3884626402       17.3976665863       19.3042706423
 Au        14.3867186047       11.4473340822        9.5680026995
 Pd        14.4006746947       14.3979676949        9.5108978407
 Au        14.3892974380       17.3797792479        9.4775904308
 Pd        16.8238061647       12.8872920601       18.3472837182
 Au        16.8482614953       15.9265661377       18.3694753669
 Pd        16.8267565699       12.9106980198       10.4623212588
 Au        16.8495015263       15.8726962232       10.4501518833
 Pd        11.9904571519       12.8657046121       18.3494437948
 Au        11.9824279042       15.9427048289       18.3640950434
 Pd        11.9864979300       12.8909510754       10.4594408579
 Au        11.9646590813       15.9136845675       10.4550116173
 Pd        18.3453191836       16.8241376447       12.8879511420
 Au        18.3692244977       16.8479561786       15.9270258152
 Pd        10.4608331425       16.8342762532       12.8941470620
 Au        10.4501287929       16.8494491986       15.8733806532
 Pd        18.3490856119       11.9901032784       12.8661567385
 Au        18.3679819894       11.9869031351       15.9324263811
 Pd        10.4613573985       11.9862047930       12.8904630076
 Au        10.4527330732       11.9751443960       15.8900784010
 Pd        12.8873233644       18.3458676563       16.8237506467
 Au        15.9270105301       18.3700188535       16.8489036520
 Pd        12.9108937934       10.4629685966       16.8266779369
 Au        15.8612591581       10.4480425651       16.8446389918
 Pd        12.8550759050       18.3465268522       11.9834953209
 Au        15.9421681657       18.3645561220       11.9819680785
 Pd        12.8911840644       10.4606350514       11.9867688937
 Au        15.8896351760       10.4524010672       11.9760445351
 Au        21.6744942423       14.3989953363        9.9148460816
 Au        21.7096646646       14.4024659925       12.8722090115
 Pd        21.6664678885       14.3993446746       15.9344198051
 Pd        21.6275458601       14.4011140993       18.8618441912
 Au         7.1056040708       14.4017107468        9.8970653587
 Au         7.0935232445       14.4012452228       12.9175259455
 Pd         7.1394389144       14.4005213056       15.8997510730
 Pd         7.1562290107       14.4020496032       18.8764748791
 Au         9.9145224994       21.6734722897       14.3999481803
 Au        12.8743361157       21.7109255151       14.4022899515
 Pd        15.9335011323       21.6662139497       14.4001958196
 Pd        18.8621310996       21.6293346697       14.4005365093
 Au         9.8972054377        7.1047370552       14.4015581192
 Au        12.9169905672        7.0950801654       14.4023075525
 Pd        15.8999608632        7.1378320656       14.4006790894
 Pd        18.8763294672        7.1574892851       14.4004764714
 Au        14.4002425957        9.9138953652       21.6748185669
 Au        14.4017603084       12.8728248527       21.7074899249
 Pd        14.4004816012       15.9336239826       21.6676847734
 Pd        14.4007720806       18.8614192804       21.6289529534
 Au        14.4012609845        9.8962922737        7.1059178769
 Au        14.4020576875       12.9173768836        7.0942042245
 Pd        14.3999300413       15.8982721527        7.1417163360
 Pd        14.4005843438       18.8770375814        7.1543562102
 Au        19.2802836504       12.8918049143       19.8269762811
 Pd        16.8189640519       11.4010504160       20.7480048217
 Au        19.2953303909       15.9126880770       19.8265965878
 Au        16.8489098474       14.3958412072       20.8388891520
 Pd        16.8054641648       17.4078535910       20.7544842471
 Au        19.2561821010       12.8852739761        8.9597762447
 Pd        16.8337928522       11.4028582912        8.0525009805
 Au        19.2743213275       15.9103783808        8.9523807758
 Pd        16.8255368167       14.3967760385        8.0082153134
 Pd        16.8146411420       17.4003072351        8.0371177409
 Au         9.5259760998       12.8756097739       19.8484536701
 Pd        11.9774518578       11.4056655293       20.7495156059
 Au         9.5034502280       15.9172677049       19.8576889289
 Au        11.9495339325       14.3950970058       20.8373732536
 Pd        12.0001611938       17.3992294442       20.7614247114
 Au         9.5451506170       12.8717651058        8.9390889901
 Pd        11.9661551777       11.4057702984        8.0525059903
 Au         9.5275477138       15.9339591881        8.9351969260
 Pd        11.9716037423       14.3928625491        8.0111435232
 Pd        11.9799697869       17.3997103704        8.0467424939
 Au        19.8286996458       19.2788761958       12.8915333428
 Pd        20.7540519131       16.8139138301       11.4070085635
 Au        19.8274270051       19.2958293381       15.9151099837
 Au        20.8400305701       16.8480374021       14.3960008826
 Pd        20.7541565336       16.8052956838       17.4068968528
 Au         8.9645134074       19.2506315769       12.8746043488
 Pd         8.0573197490       16.8356132346       11.4059233059
 Au         8.9507189185       19.2743475812       15.9124798690
 Pd         8.0077785650       16.8272905609       14.3962125223
 Pd         8.0365917543       16.8151831918       17.3988922039
 Au        19.8474947479        9.5258520403       12.8775901831
 Pd        20.7497714609       11.9780210566       11.4045775067
 Au        19.8562047884        9.5022143647       15.9209476951
 Au        20.8367651302       11.9494976220       14.3963568761
 Pd        20.7535572296       11.9937971411       17.4031888859
 Au         8.9408693500        9.5459914207       12.8735768425
 Pd         8.0524122212       11.9658004345       11.4052614105
 Au         8.9284375066        9.5238836143       15.9256972984
 Pd         8.0127252338       11.9741278560       14.3933917991
 Pd         8.0433062617       11.9794304691       17.4020673819
 Au        12.8922396502       19.8285837723       19.2787611679
 Pd        11.4066357252       20.7542990152       16.8131987866
 Au        15.9143418625       19.8277422384       19.2959732941
 Au        14.3961406557       20.8387267365       16.8489138677
 Pd        17.4077768755       20.7541572521       16.8052298202
 Au        12.8864958324        8.9607328636       19.2547277071
 Pd        11.4018008248        8.0516340785       16.8344167615
 Au        15.9118044256        8.9523582662       19.2744966572
 Pd        14.3962317150        8.0100298477       16.8272209278
 Pd        17.4054072324        8.0450084703       16.8211424777
 Au        12.8674691798       19.8434291192        9.5318135077
 Pd        11.4075250709       20.7455605291       11.9771767467
 Au        15.9187316505       19.8578349916        9.5033038072
 Au        14.3953147959       20.8364842535       11.9496677648
 Pd        17.3996439604       20.7619166585       12.0008041890
 Au        12.8734458969        8.9398075541        9.5457558849
 Pd        11.4056305815        8.0523960719       11.9654309404
 Au        15.9265164992        8.9280514204        9.5234524012
 Pd        14.3927568273        8.0123383797       11.9694265461
 Pd        17.4013514717        8.0428903705       11.9789789328
 Au        18.3766970343       10.4322240901       18.3904686378
 Pd        18.3589155370       18.3593658187       18.3577233752
 Au        18.3778023902       10.4455611861       10.4310632699
 Pd        18.3814815533       18.3739068872       10.4304309044
 Au        10.4460058204       10.4302983748       18.3782571436
 Pd        10.4301406377       18.3819970534       18.3733492742
 Au        10.4431129255       10.4430558795       10.4432656986
 Pd        10.4499297780       18.3522480350       10.4602958079
     147
 i =        2, E =    -11749.3848003364
 Au        14.3571635423       14.3546551429       14.3570804528
 Pd        16.8234344173       14.3708419904       12.8711053609
 Au        16.7706934481       14.3572154813       15.9294168429
 Pd        11.9842334574       14.3583286109       12.9433763273
 Au        12.0175022347       14.3504556315       15.8310551316
 Pd        12.8690455464       16.8250775080       14.3666785312
 Au        15.9260711560       16.7720693994       14.3570421698
 Pd        12.9445732563       11.9892671683       14.3507360953
 Au        15.8321104983       12.0189623372       14.3501322050
 Pd        14.3679993637       12.8754064047       16.8225693976
 Au        14.3561092843       15.9255591831       16.7711462291
 Pd        14.3518969924       12.9494748988       11.9858208015
 Au        14.3453401564       15.8299961877       12.0155278891
 Pd        19.0812697094       14.3996525703       11.4965887334
 Au        19.1743198995       14.4155790870       14.3462788766
 Pd        19.1895615575       14.3926518363       17.2931479697
 Au         9.7161723865       14.3708556139       11.5654064794
 Pd         9.5846958528       14.4083219295       14.3925643239
 Au         9.6011660453       14.3911259541       17.2568698760
 Pd        11.4991332461       19.0861069859       14.3940980341
 Au        14.3458482435       19.1694087319       14.4046890221
 Pd        17.2941013550       19.1902369602       14.3795351248
 Au        11.5664434850        9.7165304580       14.3757607889
 Pd        14.3952197097        9.5794809063       14.4042781333
 Au        17.2532249319        9.5989701414       14.3891695626
 Pd        14.3850405277       11.4925772655       19.0720211082
 Au        14.4074607185       14.3487158008       19.1724475707
 Pd        14.3794364842       17.2932289909       19.1918895278
 Au        14.3755214519       11.5652308863        9.7170449313
 Pd        14.4024455221       14.4010998476        9.5856237833
 Au        14.3889934452       17.2611639806        9.6003521910
 Pd        16.7557202554       12.9155938195       18.2689794876
 Au        16.8149769828       15.9209890234       18.3245203917
 Pd        16.7639810336       12.9619926833       10.5430260298
 Au        16.8246419967       15.8172732907       10.5127579653
 Pd        12.0743058409       12.8680797580       18.2619847703
 Au        12.0144570647       15.9693708750       18.3085910862
 Pd        12.0619265496       12.9250325933       10.5391519917
 Au        11.9970138811       15.8946150395       10.5233046794
 Pd        18.2867557819       16.7655410838       12.8932764168
 Au        18.3215313459       16.8144760252       15.9201237266
 Pd        10.5412542510       16.7820651152       12.9210326435
 Au        10.5126400412       16.8241625925       15.8140324590
 Pd        18.2608360952       12.0733596298       12.8688292542
 Au        18.3100546290       12.0339782668       15.9249026190
 Pd        10.5440186441       12.0613129569       12.9180951353
 Au        10.5137684234       12.0169123770       15.8373593931
 Pd        12.8916206906       18.2880866311       16.7637463117
 Au        15.9205114309       18.3239548831       16.8165078018
 Pd        12.9585601819       10.5442423184       16.7637112432
 Au        15.7777366150       10.5088077362       16.8053057721
 Pd        12.8354395762       18.2617321372       12.0575558045
 Au        15.9666132580       18.3091453595       12.0136566007
 Pd        12.9206476863       10.5418905349       12.0615262750
 Au        15.8353274962       10.5131076606       12.0194610353
 Au        21.4931648036       14.4152337709       10.0352655834
 Au        21.6132631920       14.4262088104       12.8698603402
 Pd        21.5149030259       14.4072784514       15.9382137839
 Pd        21.3782360431       14.4134994908       18.7080374100
 Au         7.2834626431       14.4107512714       10.0119369512
 Au         7.2003263451       14.4090751984       12.9937810179
 Pd         7.3087273977       14.4058287297       15.8225483399
 Pd         7.3733691902       14.4111927519       18.7450669866
 Au        10.0390440839       21.4848706105       14.4107630897
 Au        12.8696687923       21.6142933862       14.4185572982
 Pd        15.9386824475       21.5205186111       14.4059945144
 Pd        18.7071901347       21.3801434475       14.4070435466
 Au        10.0125583590        7.2795409729       14.4097917043
 Au        12.9932454962        7.2044248011       14.4124113745
 Pd        15.8227521768        7.3063549522       14.4054190508
 Pd        18.7454205596        7.3766093702       14.4057298655
 Au        14.4020140291       10.0223993614       21.5001124480
 Au        14.4077751128       12.8803126576       21.6124542237
 Pd        14.4075907881       15.9419031976       21.5177136697
 Pd        14.4085208639       18.7007744746       21.3789529534
 Au        14.4091426660       10.0087117801        7.2831211045
 Au        14.4116173619       12.9932859622        7.2018312954
 Pd        14.4015742600       15.8203626148        7.3152805019
 Pd        14.4037804518       18.7444977070        7.3702983861
 Au        19.2099394062       12.9193161418       19.7220849298
 Pd        16.7908805752       11.4553426623       20.6402372454
 Au        19.2581462429       15.9128899714       19.7126961242
 Au        16.8458875116       14.3981975841       20.8540977090
 Pd        16.7431524176       17.3698165499       20.6338278599
 Au        19.1232173177       12.9003001920        9.0319879658
 Pd        16.7896117158       11.4860745386        8.2261045151
 Au        19.1925927739       15.9080964593        9.0360387091
 Pd        16.7668002612       14.3860671286        8.0831265415
 Pd        16.7632899693       17.3270893961        8.1775317848
 Au         9.6013045837       12.8752100688       19.7570652969
 Pd        11.9923744184       11.4677998647       20.6603086376
 Au         9.5470272780       15.9202748650       19.7686514274
 Au        11.9463215202       14.3939673311       20.8417475179
 Pd        12.0550303798       17.3469551952       20.6694724746
 Au         9.6676909326       12.8708165387        9.0073317787
 Pd        11.9961851204       11.4880548550        8.1986338473
 Au         9.6128666862       15.9584094512        9.0052222156
 Pd        12.0214441180       14.3804557598        8.1043771163
 Pd        12.0092752371       17.3276999518        8.1821006193
 Au        19.7180142300       19.1871953110       12.8937791611
 Pd        20.5947848352       16.7483592817       11.4898435036
 Au        19.7124657676       19.2619404146       15.9186217703
 Au        20.8576704288       16.8429857612       14.3769284934
 Pd        20.6379086928       16.7466785332       17.3683945220
 Au         9.0579012032       19.1116659838       12.8578909541
 Pd         8.2438238937       16.7974247569       11.4932623923
 Au         9.0314998093       19.1923152949       15.9130733054
 Pd         8.0838243018       16.7720816973       14.3832261682
 Pd         8.1752313471       16.7651449950       17.3223255058
 Au        19.7546459023        9.6012958463       12.8815776351
 Pd        20.6626185491       11.9931116202       11.4646640674
 Au        19.7691749660        9.5344334661       15.9177937039
 Au        20.8424754842       11.9468270811       14.3895888136
 Pd        20.6755675239       12.0283047938       17.3620291892
 Au         9.0117156523        9.6711977075       12.8755817137
 Pd         8.2005024040       11.9963094612       11.4871584229
 Au         8.9852766519        9.6034906308       15.9271256975
 Pd         8.1042453988       12.0292458984       14.3770426842
 Pd         8.1645950032       12.0060542596       17.3337312752
 Au        12.8956779896       19.7171889955       19.1870645194
 Pd        11.4887297533       20.5959626496       16.7449393995
 Au        15.9171008505       19.7129359681       19.2626238220
 Au        14.3764711950       20.8525789145       16.8473996077
 Pd        17.3723565252       20.6354958006       16.7468262495
 Au        12.9036267698        9.0352196990       19.1197625496
 Pd        11.4825616223        8.2239107085       16.7910259995
 Au        15.8961851537        9.0120721751       19.1872532304
 Pd        14.3816778204        8.0861892572       16.7714611608
 Pd        17.3412321211        8.1905908899       16.7822389720
 Au        12.8384943643       19.7388028700        9.6245732418
 Pd        11.4782430357       20.6208945035       12.0001996755
 Au        15.9234469796       19.7685927496        9.5458668591
 Au        14.3843584948       20.8367476516       11.9450510906
 Pd        17.3506011046       20.6718417337       12.0545081967
 Au        12.8751808695        9.0082547397        9.6702156959
 Pd        11.4881613641        8.2002444651       11.9948582893
 Au        15.9300626412        8.9842717937        9.6019897438
 Pd        14.3745995761        8.1033066048       12.0154623324
 Pd        17.3305255682        8.1619666014       12.0041374324
 Au        18.3677362689       10.4233799238       18.4020866101
 Pd        18.3319679075       18.3340637816       18.3304681922
 Au        18.3556399480       10.4703565223       10.4308670436
 Pd        18.3750195072       18.3390070925       10.4490614243
 Au        10.4719467705       10.4285503586       18.3572143937
 Pd        10.4486348318       18.3767013748       18.3383551731
 Au        10.4754135065       10.4752172648       10.4767606071
 Pd        10.4905749811       18.2937094287       10.5203635206
     147
 i =        3, E =    -11749.4605314673
 Au        14.3769357218       14.3828138187       14.3766536308
 Pd        16.6613274780       14.3713455880       12.9491840376
 Au        16.6423096218       14.3610842129       15.8887537892
 Pd        12.1069189125       14.3516178336       13.0411407719
 Au        12.1105575549       14.3513309955       15.7886559384
 Pd        12.9407171670       16.6631612558       14.3575700018
 Au        15.8938035460       16.6483321708       14.3436466573
 Pd        13.0433312977       12.1112298522       14.3335774609
 Au        15.7880946634       12.1138480880       14.3437638522
 Pd        14.3591517092       12.9631487019       16.6581651596
 Au        14.3418450108       15.8988505005       16.6473466254
 Pd        14.3350741545       13.0522141907       12.1053163061
 Au        14.3382927721       15.7915928946       12.1100671021
 Pd        18.9527921029       14.3500991453       11.5581681798
 Au        19.0784217179       14.4269143732       14.3417887332
 Pd        18.9619375485       14.3741722768       17.1296461905
 Au         9.8313384985       14.3543096312       11.6236210448
 Pd         9.7473062751       14.4265785418       14.3804126388
 Au         9.8429073904       14.3799196988       17.1441763593
 Pd        11.5622523013       18.9478723210       14.3634380085
 Au        14.3464044267       19.0736926477       14.4011776266
 Pd        17.1315986426       18.9594840836       14.3736976230
 Au        11.6293051547        9.8330789557       14.3678372351
 Pd        14.3825695260        9.7397386266       14.4068521849
 Au        17.1374200098        9.8353354200       14.3837133401
 Pd        14.3730618257       11.5473542653       18.9712537688
 Au        14.4087229061       14.3457968494       19.0790237276
 Pd        14.3729386648       17.1301898721       18.9506344166
 Au        14.3661328606       11.6288511445        9.8327933626
 Pd        14.4054355560       14.3940179160        9.7498448929
 Au        14.3905885087       17.1553997478        9.8468275689
 Pd        16.6934603063       12.9227293278       18.2183046844
 Au        16.7575834026       15.8800175516       18.2546399820
 Pd        16.6773291968       12.9996924447       10.6705793238
 Au        16.7639426657       15.7975882233       10.6182611338
 Pd        12.1214480502       12.8678554036       18.1976352440
 Au        12.0204072490       15.9761678376       18.2296542087
 Pd        12.1102293480       12.9762013933       10.6544937837
 Au        12.0245397646       15.8375062972       10.6384008661
 Pd        18.1882681682       16.7015403363       12.9188564539
 Au        18.2567955889       16.7610611130       15.8741976166
 Pd        10.6823455980       16.6811601664       12.9761778177
 Au        10.6175122028       16.7668595489       15.7781866225
 Pd        18.1995873808       12.1248175369       12.8618685074
 Au        18.2625299274       12.0490529120       15.9098418334
 Pd        10.6678395627       12.1106649662       12.9560300725
 Au        10.6082076056       12.0355179205       15.7888800800
 Pd        12.9161834796       18.1905616113       16.6959135481
 Au        15.8735510523       18.2600844372       16.7599853728
 Pd        12.9762234595       10.6732804225       16.6727170982
 Au        15.7439972249       10.6051749522       16.7410691461
 Pd        12.8526130555       18.1774609421       12.1257927283
 Au        15.9706134522       18.2352972872       12.0205506204
 Pd        12.9588915676       10.6630448079       12.1082759626
 Au        15.7857835534       10.6074577248       12.0380497254
 Au        21.2528842439       14.4045760144       10.1726781811
 Au        21.4910933287       14.4214039834       12.9030314842
 Pd        21.3215481393       14.4041584940       15.8962309358
 Pd        21.1692918160       14.4074841799       18.5425564361
 Au         7.5324191787       14.4162844808       10.1727702560
 Au         7.2992147412       14.4125214103       13.0445258857
 Pd         7.4610137125       14.4029824761       15.7382974737
 Pd         7.5975531938       14.4095478293       18.5891376445
 Au        10.1709948201       21.2392004194       14.3995536040
 Au        12.9134774998       21.4955263675       14.4139181700
 Pd        15.8913228511       21.3234714085       14.4100022498
 Pd        18.5453925041       21.1635892326       14.3999439433
 Au        10.1745997813        7.5218531597       14.4127657271
 Au        13.0430921842        7.3040661629       14.4173188141
 Pd        15.7401536371        7.4537396034       14.4045845972
 Pd        18.5880502663        7.5990313012       14.4013629543
 Au        14.3966273160       10.1699787041       21.2506926716
 Au        14.4113536194       12.9032641794       21.4722466415
 Pd        14.4114591104       15.8969113823       21.3312198392
 Pd        14.4014419021       18.5398244743       21.1678248832
 Au        14.4111125765       10.1669315701        7.5290284113
 Au        14.4148151001       13.0444695061        7.3048654720
 Pd        14.3975667153       15.7349639894        7.4681650091
 Pd        14.3960768564       18.5906283976        7.5974528986
 Au        19.0742603687       12.9165410010       19.5994019066
 Pd        16.7289964801       11.5524948217       20.4393228939
 Au        19.1691439246       15.9448959814       19.6106489718
 Au        16.8336331976       14.3940882396       20.8527966117
 Pd        16.7003297542       17.2969736813       20.5076772253
 Au        18.9938385957       12.9253171464        9.1397064496
 Pd        16.7261720249       11.5771056638        8.4220091314
 Au        19.0993348605       15.9250275363        9.1224628473
 Pd        16.7179910541       14.3781055171        8.1537812709
 Pd        16.7403418235       17.2428014673        8.3402771342
 Au         9.7370196146       12.8612317689       19.6369259463
 Pd        12.0496037046       11.5744462848       20.4786131248
 Au         9.6430310857       15.9508526581       19.6615639404
 Au        11.9566686038       14.3897314165       20.8189699615
 Pd        12.0961268745       17.2651944151       20.5491056556
 Au         9.8046789951       12.8858906201        9.1031244250
 Pd        12.0560315367       11.5783238807        8.3752862152
 Au         9.7048224759       15.9773717374        9.0857831575
 Pd        12.0635892673       14.3684191570        8.2070846230
 Pd        12.0327977341       17.2482576258        8.3211847109
 Au        19.5855811961       19.0555472345       12.8690179253
 Pd        20.4089379076       16.7090716515       11.5715391518
 Au        19.6073448187       19.1731738673       15.9482589456
 Au        20.8615477251       16.8344645482       14.3853314621
 Pd        20.5080666654       16.7067417337       17.2896796279
 Au         9.1750165438       18.9924257793       12.8554380441
 Pd         8.4379566041       16.7356759923       11.5774562775
 Au         9.1175411612       19.0974651896       15.9291394521
 Pd         8.1594281740       16.7303476510       14.3699915204
 Pd         8.3373028563       16.7433561396       17.2339978447
 Au        19.6343773248        9.7398376062       12.8702555098
 Pd        20.4782427182       12.0530775220       11.5710476712
 Au        19.6726840935        9.6285798408       15.9351057239
 Au        20.8215422480       11.9594416289       14.3865025765
 Pd        20.5332447592       12.0774831389       17.2724711811
 Au         9.1097214248        9.8097542227       12.8937945044
 Pd         8.3750085158       12.0541354711       11.5743900816
 Au         9.0549092172        9.7049110536       15.9245208810
 Pd         8.1961295856       12.0759595244       14.3613763646
 Pd         8.3165107375       12.0340765169       17.2485991615
 Au        12.8723597128       19.5835964599       19.0550574773
 Pd        11.5701977277       20.4101674998       16.6999152299
 Au        15.9459198737       19.6099272190       19.1745278908
 Au        14.3844943846       20.8516272967       16.8356355543
 Pd        17.2962439308       20.5060138674       16.7010535033
 Au        12.9272214701        9.1403435273       18.9915323548
 Pd        11.5694927903        8.4178883333       16.7286818512
 Au        15.8893680601        9.0944807611       19.0954011283
 Pd        14.3680837602        8.1482024991       16.7261801452
 Pd        17.2575691283        8.3616814235       16.7605611680
 Au        12.8033724932       19.6091033534        9.7587649437
 Pd        11.5773120313       20.4412591942       12.0536697919
 Au        15.9531030454       19.6609825238        9.6403193361
 Au        14.3825660168       20.8088596256       11.9569201121
 Pd        17.2688743993       20.5507748339       12.1003757203
 Au        12.8914154818        9.1050548626        9.8060342883
 Pd        11.5765822122        8.3764195882       12.0529669906
 Au        15.9309630447        9.0539334853        9.7019571161
 Pd        14.3557288719        8.1937327979       12.0543305959
 Pd        17.2413626129        8.3127316826       12.0295465249
 Au        18.3514388442       10.4423907396       18.4104115392
 Pd        18.3082875168       18.3097743597       18.3040065645
 Au        18.3400132634       10.5071868138       10.4640171068
 Pd        18.3370465821       18.2795234521       10.4947826279
 Au        10.5091323090       10.4585695927       18.3425423190
 Pd        10.4943846741       18.3392094125       18.2785030994
 Au        10.5219314014       10.5204379687       10.5216637795
 Pd        10.5355680875       18.2463303021       10.5720372801
     147
 i =        4, E =    -11749.5104456515
 Au        14.3975633304       14.4020799067       14.3973679101
 Pd        16.7136833698       14.3735255526       12.9447484395
 Au        16.6764805525       14.3600980857       15.8870788818
 Pd        12.0637899093       14.3604751685       12.9985068574
 Au        12.1113935314       14.3571026993       15.8310739282
 Pd        12.9470123015       16.7128908757       14.3719432155
 Au        15.8770150346       16.6798666699       14.3567599461
 Pd        12.9980239721       12.0714304420       14.3533438393
 Au        15.8331576405       12.1172585562       14.3538595527
 Pd        14.3691979881       12.9492006343       16.7202274280
 Au        14.3550630599       15.8811168764       16.6700673861
 Pd        14.3552853596       13.0033242185       12.0648022922
 Au        14.3572464545       15.8333537796       12.1142165901
 Pd        18.9694678556       14.3636447494       11.5448730930
 Au        19.0827966004       14.4180558418       14.3400682082
 Pd        18.9956129968       14.3872779660       17.2085917818
 Au         9.8151612402       14.3628521313       11.5888819511