     147
 i =      195, E =    -11320.0618571102
 Au        14.1657224366       14.8650160193       14.7589287738
 Pt        16.6742502468       14.8123587251       13.1033142715
 Pt        16.6953696809       14.7685716389       15.8009137080
 Au        11.8086775361       14.5904833515       12.9979313828
 Au        11.6035370947       14.8343362939       15.9394389413
 Pt        13.0719656012       17.2904945929       15.1478639845
 Pt        15.8300714918       17.0375112063       14.4149757406
 Au        13.0698577332       12.3353788824       14.8096420728
 Au        15.9117533077       12.4190965582       14.4708605607
 Pt        14.8010470733       13.2214152150       16.9333930426
 Pt        13.6748480953       15.7904692640       17.3621389522
 Au        14.2849634941       13.2670328593       12.3661535726
 Au        14.3239113427       16.1137698945       12.2690482055
 Pt        18.9807555341       14.5210786574       11.5498913274
 Pt        19.1324098472       14.5334601864       14.3979764788
 Au        18.8810485929       14.8362144690       17.3703677910
 Au         9.4642491327       14.3748542702       10.7769503280
 Pt         9.6813824125       13.6104575536       14.4237597410
 Pt         9.4627946220       13.6366047659       17.0497146824
 Au        11.3550082472       19.6234747929       15.2552697536
 Au        14.9363678540       19.3784659649       15.4423992613
 Pt        17.5062359895       19.0733485870       14.1442663292
 Pt        11.9798451367        9.5943708885       14.3156295136
 Au        14.8813846921        9.7523420171       14.3903098579
 Au        17.6433331144       10.1205244282       14.6210168507
 Pt        14.3458789495       11.3265572041       18.7933044276
 Pt        13.8229657985       13.9689767159       19.2726137766
 Au        13.8196213678       17.3779780565       19.6795936804
 Au        14.5426491680       11.6323943164       10.0156074208
 Pt        14.5343660552       14.4865594826        9.8436957227
 Pt        14.7348956935       17.1023708920        9.7689761215
 Au        16.9950536620       11.8494905972       19.2864285839
 Au        16.3233903158       14.8562167796       18.5821822169
 Pt        16.7083304429       13.1209382570       10.9363615924
 Pt        16.9059067648       15.8036946957       10.5458425829
 Au        12.0418597718       12.6470627145       17.6346540943
 Au        11.6144185258       15.7762317886       19.4576366884
 Pt        12.0376679456       13.1074280917       10.6326954627
 Pt        12.2979221729       15.8146558694       10.5387952331
 Au        18.5891481751       16.8733429281       12.8607639798
 Au        18.3492005369       16.9929949828       15.7153871558
 Pt        11.5295283157       17.2495751041       12.7443642288
 Pt        10.3799849588       17.1397802336       15.1654431976
 Au        18.3270056039       12.2846250622       13.0485298669
 Au        18.3036317186       12.4497475340       16.1286888266
 Pt        11.0822543758       11.9172598843       12.9748677619
 Pt        10.5985100677       11.4426105951       15.6280386083
 Au        11.9567965435       18.0944107762       17.5758354476
 Au        15.9370361472       17.3238505287       17.2210580880
 Pt        13.2743270177       10.3088621313       16.5665596803
 Pt        16.0457157200       10.8229183016       16.8145972423
 Au        13.8126755481       18.7696496334       12.9489637385
 Au        16.3127574450       18.2302099952       11.8219748025
 Pt        13.3763872274       10.6863883400       12.2659010406
 Pt        16.0817183985       10.7733372703       12.1254557113
 Au        21.5203257174       13.9013077632        9.7609196794
 Pt        21.3314936618       14.1184264834       12.5687198099
 Au        21.7881977291       14.2561426871       15.2661195151
 Pt        21.4761804157       14.4677361204       17.9564803408
 Au         7.0190978827       15.6748632680       11.4575268375
 Pt         7.6288844345       13.4388310775       12.8828851626
 Au         7.0299689055       12.9382145583       15.5668847488
 Pt         7.3633765462       12.6551276682       18.3111510019
 Au        11.4556885420       21.8946955754       13.6918467834
 Pt        14.1292854965       21.4615389046       13.6043433565
 Au        16.7883368797       21.6586276681       13.5918059083
 Pt        19.4643094075       20.9571156141       13.5965679512
 Au        10.6425067886        6.9068691127       13.8216861991
 Pt        13.3819981640        7.3159059277       14.0441017202
 Au        16.1163678976        7.0756911385       14.0617176872
 Pt        18.8123573213        7.6715568293       14.0603288396
 Au        14.3610475222        9.5389824019       20.9189048222
 Pt        13.8016219961       12.2060128392       21.3238823892
 Au        16.0629830040       16.3142062574       21.1128281108
 Pt        15.9367053629       18.9243988090       20.2134169906
 Au        14.6542311705       10.1244746869        7.3826428440
 Pt        14.5857014252       12.9342836608        7.5914826603
 Au        14.6482486766       15.5971549443        7.0910666438
 Pt        14.8232254549       18.3405619156        7.3272360496
 Au        19.6455365630       12.6329122057       19.0328361292
 Au        16.1800896069       13.5111742137       21.3121672462
 Pt        20.3179674878       16.5819059700       19.0326366366
 Au        18.5622920892       14.8873000927       20.3865868316
 Pt        17.8798114686       17.4293862978       19.3271435615
 Pt        18.9441680826       12.8905403889        9.4364197805
 Au        16.9756391091       11.4349400341        8.2043124081
 Au        19.3918007074       15.5505257305        8.6917638482
 Pt        16.8668272716       14.2114194215        8.3309161916
 Au        17.1319999919       16.9784540517        7.9106318126
 Pt         9.7552388509       11.7479285346       19.0458669914
 Pt        11.9947077912       10.6975615980       19.8847622265
 Au         9.1552073558       14.4186044509       19.6902507216
 Pt        11.4911391205       13.2318596578       20.5437609997
 Au        13.5877123092       15.0451217426       21.7117667367
 Au         9.8787755179       12.4250719947        8.8583586611
 Pt        12.4164513333       11.5431310859        8.3594273203
 Pt        10.2487285543       16.3641726788        9.0600459101
 Au        12.0975959515       14.3694969337        8.0021934741
 Pt        12.5695643284       17.2340068072        8.1831020107
 Au        20.4547125018       18.8785205973       12.1216868057
 Au        21.0265614954       16.4382291168       10.9041137017
 Pt        20.2681001766       18.8392979219       14.9812518577
 Au        21.4351407101       16.6443692549       13.7556188932
 Pt        21.0022184702       16.6851904073       16.4747682442
 Pt        10.4301220466       19.6175337380       12.4915288275
 Au         8.8961836403       17.7322601651       11.0325829033
 Au         8.3550302142       18.4239950414       13.7886429683
 Pt         9.2125041465       15.8574376491       13.1010058676
 Au         7.9685690523       15.6241973853       15.5697744559
 Pt        19.7297270922        9.7829877678       12.7230092414
 Pt        20.5501227281       11.8305712684       11.3150656020
 Au        20.3569537702        9.5923701297       15.4402466134
 Pt        20.9395609422       11.9050840575       13.9626926996
 Au        21.1402994719       11.9342728653       16.7295639448
 Au         9.5546023862        9.1590877854       12.4431270365
 Pt         8.9557077904       11.6934080736       11.4440643446
 Pt         9.5666145948        8.9470364044       15.3370797825
 Au         8.0225556693       10.8604634911       13.9871713202
 Pt         8.4054883141       10.7544804985       16.8446802278
 Au        14.2276665064       19.7882296277       18.1507644823
 Au        13.1575105413       21.5646794996       16.1643162759
 Pt        17.0924600669       19.6737595074       18.0223400641
 Au        16.0118744459       21.7315308285       16.4303494687
 Pt        18.4438791133       20.5948985435       16.0006346740
 Pt        13.1185689433        8.6167661472       18.5532124894
 Au        11.8141024878        7.4544436474       16.3800893398
 Au        15.9225963023        8.7663529550       18.7071400985
 Pt        14.5822641687        7.8346244044       16.4053228008
 Au        17.3742925569        8.0217840174       16.4591204673
 Pt        13.8306899809       19.5037667562        9.4590471527
 Pt        12.6146834832       20.6299437279       11.4433633103
 Au        16.6212232778       19.5538601638        9.1177510167
 Pt        15.2750422076       20.7612515223       11.3413870021
 Au        18.1174465055       20.4151421358       11.2806856321
 Au        13.2680763734        8.9673471441        9.4940441347
 Pt        12.1259829177        8.3632213572       11.8910327012
 Pt        16.0832438885        9.2875485114        9.8048058438
 Au        14.7702741917        7.6982599299       11.6318802490
 Pt        17.4113896754        8.5188821518       11.9816458674
 Au        18.7513665726       10.1653765169       17.7736259354
 Au        19.6875773011       18.8531410324       17.6994106240
 Pt        18.3397429632       10.5448548178       10.5270491284
 Pt        18.6684486324       17.8646334932       10.1450487476
 Au        10.5049278414        9.3385934488       17.9662831850
 Au         9.5881617903       16.4368769429       17.6958683697
 Pt        11.1680182434       10.5232430717       10.5431227812
 Pt        11.4794643751       18.4862273645       10.2647015175
     147
 i =      196, E =    -11320.0620614603
 Au        14.1665264620       14.8678872838       14.7603363950
 Pt        16.6758537090       14.8109990807       13.1036312103
 Pt        16.6950685568       14.7685748721       15.8016334016
 Au        11.8078591215       14.5909345921       12.9986212369
 Au        11.6044075411       14.8346650640       15.9380887924
 Pt        13.0705092066       17.2924497569       15.1477272449
 Pt        15.8327341415       17.0374108960       14.4143429035
 Au        13.0735250729       12.3355018638       14.8086580865
 Au        15.9147074053       12.4195918494       14.4710890578
 Pt        14.7990159301       13.2198907985       16.9325108153
 Pt        13.6756036426       15.7934748370       17.3633642288
 Au        14.2858831287       13.2670324879       12.3675250484
 Au        14.3265673544       16.1139449208       12.2677877932
 Pt        18.9805752978       14.5188353415       11.5513828082
 Pt        19.1326719725       14.5346241576       14.4003977136
 Au        18.8797833064       14.8391105742       17.3698933468
 Au         9.4729113475       14.3705870540       10.7802405377
 Pt         9.6810998718       13.6104501630       14.4238474579
 Pt         9.4598327797       13.6364856799       17.0474395455
 Au        11.3544775515       19.6231656812       15.2513889739
 Au        14.9392300614       19.3754124102       15.4468857618
 Pt        17.5059485292       19.0761300711       14.1406321395
 Pt        11.9797540081        9.5941547896       14.3133247750
 Au        14.8805150797        9.7532381274       14.3885448164
 Au        17.6425525571       10.1186997037       14.6232264466
 Pt        14.3449506057       11.3261984068       18.7938819753
 Pt        13.8221255508       13.9701758254       19.2720746123
 Au        13.8190017405       17.3771576178       19.6855263997
 Au        14.5455798848       11.6325835650       10.0120771989
 Pt        14.5339900697       14.4852355358        9.8437381524
 Pt        14.7343058126       17.1014774771        9.7679393721
 Au        16.9948110335       11.8450381754       19.2852190806
 Au        16.3227053716       14.8511989892       18.5801442602
 Pt        16.7085126699       13.1195255695       10.9361874136
 Pt        16.9053142187       15.8021109759       10.5453875553
 Au        12.0387652509       12.6516220134       17.6345498922
 Au        11.6141066821       15.7779390859       19.4567773195
 Pt        12.0391112241       13.1042779453       10.6341076256
 Pt        12.2956131636       15.8136654571       10.5416734249
 Au        18.5893918526       16.8738178634       12.8573414148
 Au        18.3511940311       16.9947881685       15.7095552239
 Pt        11.5300931972       17.2497818884       12.7487266988
 Pt        10.3772939022       17.1391132806       15.1675821708
 Au        18.3276289380       12.2834364879       13.0504255489
 Au        18.3014313026       12.4507031697       16.1322458114
 Pt        11.0825533183       11.9169833903       12.9773178679
 Pt        10.6005226776       11.4408579473       15.6283919535
 Au        11.9561413178       18.0944621626       17.5763544248
 Au        15.9414288804       17.3209800972       17.2207686352
 Pt        13.2728726878       10.3128888978       16.5656914809
 Pt        16.0423853492       10.8221920017       16.8141674216
 Au        13.8141312111       18.7700286386       12.9500001464
 Au        16.3128028772       18.2290663860       11.8205871954
 Pt        13.3758434648       10.6861096296       12.2621720620
 Pt        16.0811897025       10.7728772571       12.1257594442
 Au        21.5219920684       13.9022711966        9.7635773127
 Pt        21.3314045002       14.1193214680       12.5699893261
 Au        21.7873843590       14.2571885776       15.2673276344
 Pt        21.4711612098       14.4661002839       17.9596717585
 Au         7.0242732565       15.6759018415       11.4540799766
 Pt         7.6295685439       13.4369541368       12.8819279321
 Au         7.0276676758       12.9377952540       15.5672203001
 Pt         7.3648973954       12.6554694864       18.3139729515
 Au        11.4598419620       21.8992187798       13.6923173596
 Pt        14.1307934098       21.4591351752       13.6077140345
 Au        16.7888092872       21.6626168575       13.5877579390
 Pt        19.4630767887       20.9567784665       13.5942866216
 Au        10.6418855564        6.9043899735       13.8211318047
 Pt        13.3810441747        7.3163467360       14.0461964948
 Au        16.1157595119        7.0768256234       14.0596469052
 Pt        18.8114232138        7.6695958435       14.0584251820
 Au        14.3614145941        9.5411484452       20.9219643630
 Pt        13.8016724112       12.2079310455       21.3210457475
 Au        16.0651633353       16.3117045511       21.1095572570
 Pt        15.9364026231       18.9237034199       20.2128007333
 Au        14.6561514469       10.1243936461        7.3791931537
 Pt        14.5836467073       12.9342345817        7.5873538168
 Au        14.6441447218       15.5986174153        7.0930436444
 Pt        14.8254062758       18.3426425679        7.3285933687
 Au        19.6404404589       12.6297100843       19.0365218577
 Au        16.1805495994       13.5093556173       21.3079662792
 Pt        20.3186191538       16.5839548085       19.0344889266
 Au        18.5607454494       14.8863226352       20.3833149259
 Pt        17.8801651438       17.4313773580       19.3255475025
 Pt        18.9444657685       12.8918906211        9.4351701588
 Au        16.9762775467       11.4330084846        8.2050333464
 Au        19.3922314585       15.5518754440        8.6936403406
 Pt        16.8650445616       14.2097952877        8.3306193001
 Au        17.1312195349       16.9762518987        7.9104027453
 Pt         9.7559995984       11.7491270292       19.0469148078
 Pt        11.9941471498       10.6966770294       19.8859192738
 Au         9.1563565487       14.4205881673       19.6900775295
 Pt        11.4911044730       13.2324961137       20.5420530657
 Au        13.5843198567       15.0440177934       21.7126791723
 Au         9.8769828181       12.4257074461        8.8555667050
 Pt        12.4158756210       11.5432179460        8.3599184461
 Pt        10.2477441115       16.3681219640        9.0607631587
 Au        12.0941232847       14.3690577099        8.0055934640
 Pt        12.5694018371       17.2374843838        8.1863563697
 Au        20.4575762855       18.8786294930       12.1225016854
 Au        21.0280103301       16.4390615558       10.9042361259
 Pt        20.2708059597       18.8426049465       14.9819724213
 Au        21.4337561948       16.6458922946       13.7550351708
 Pt        21.0016204850       16.6843747153       16.4751955061
 Pt        10.4298810645       19.6180159803       12.4920726341
 Au         8.8966395868       17.7300792526       11.0332451534
 Au         8.3542471621       18.4266864204       13.7865644694
 Pt         9.2095081388       15.8577729856       13.1030934546
 Au         7.9678174967       15.6235095597       15.5686122331
 Pt        19.7294427029        9.7826795273       12.7223950802
 Pt        20.5483651465       11.8309159272       11.3140168236
 Au        20.3528421972        9.5932316693       15.4411654950
 Pt        20.9385642402       11.9043795979       13.9618762464
 Au        21.1354893622       11.9373704112       16.7297817142
 Au         9.5553351606        9.1559557514       12.4429328744
 Pt         8.9560339133       11.6893261887       11.4439186494
 Pt         9.5665317116        8.9459907349       15.3383561205
 Au         8.0246534034       10.8614525106       13.9865199839
 Pt         8.4066665750       10.7553697032       16.8451212958
 Au        14.2247580141       19.7877899397       18.1531120484
 Au        13.1608961819       21.5634312590       16.1682065310
 Pt        17.0900913860       19.6746698577       18.0203452674
 Au        16.0128142459       21.7338155061       16.4289919795
 Pt        18.4428171164       20.5962204584       15.9987632211
 Pt        13.1226413443        8.6200133999       18.5521319982
 Au        11.8152417769        7.4566228159       16.3805383973
 Au        15.9277326029        8.7682677433       18.7096120484
 Pt        14.5848859854        7.8389616710       16.4049177689
 Au        17.3759741599        8.0178893947       16.4597429402
 Pt        13.8294445247       19.5041294733        9.4598517494
 Pt        12.6134019448       20.6305469338       11.4443134084
 Au        16.6205419372       19.5530115474        9.1196896626
 Pt        15.2740611036       20.7605462666       11.3427497471
 Au        18.1197874421       20.4115914605       11.2784322654
 Au        13.2690668512        8.9689455628        9.4924664143
 Pt        12.1258627241        8.3605614551       11.8897774785
 Pt        16.0819469685        9.2852011053        9.8061378759
 Au        14.7687381739        7.6982715606       11.6335298041
 Pt        17.4120088898        8.5186306934       11.9807386586
 Au        18.7488902868       10.1637821472       17.7706285541
 Au        19.6866396110       18.8539308388       17.6972195029
 Pt        18.3383564030       10.5452136854       10.5263683377
 Pt        18.6696697673       17.8639015959       10.1444057293
 Au        10.5056480524        9.3391265298       17.9681423047
 Au         9.5864426677       16.4338996489       17.6963679039
 Pt        11.1685087157       10.5224057747       10.5434559745
 Pt        11.4774066097       18.4880389532       10.2666774522
     147
 i =      197, E =    -11320.0622859838
 Au        14.1673544577       14.8725487173       14.7611824309
 Pt        16.6775260654       14.8089093821       13.1042421413
 Pt        16.6941116802       14.7700142439       15.8020277081
 Au        11.8079967518       14.5912781992       13.0004464922
 Au        11.6048970322       14.8364233532       15.9368019966
 Pt        13.0682271744       17.2955420558       15.1487554586
 Pt        15.8363449444       17.0385965433       14.4119609960
 Au        13.0771646514       12.3377911582       14.8048166276
 Au        15.9184792871       12.4203076751       14.4716911601
 Pt        14.7942630661       13.2187290059       16.9299243555
 Pt        13.6758171846       15.7983804728       17.3645678931
 Au        14.2879525352       13.2668272952       12.3687279911
 Au        14.3287471484       16.1128446473       12.2665120268
 Pt        18.9804247506       14.5155929017       11.5529006067
 Pt        19.1325092051       14.5350959693       14.4027889110
 Au        18.8773940781       14.8448909488       17.3701568025
 Au         9.4867027230       14.3665994893       10.7868843588
 Pt         9.6799698724       13.6082023421       14.4238167987
 Pt         9.4569142853       13.6361325264       17.0451732627
 Au        11.3550880118       19.6241273336       15.2453034953
 Au        14.9445444403       19.3714340350       15.4548857992
 Pt        17.5057430401       19.0807458180       14.1334050934
 Pt        11.9797160439        9.5935502436       14.3087528770
 Au        14.8777156134        9.7555400876       14.3851999019
 Au        17.6406037055       10.1159138367       14.6260796270
 Pt        14.3403554741       11.3268092667       18.7929519090
 Pt        13.8202570588       13.9730121674       19.2704781727
 Au        13.8174522642       17.3761048712       19.6945959210
 Au        14.5498681107       11.6334731053       10.0073431637
 Pt        14.5316582650       14.4829214868        9.8434114167
 Pt        14.7339419575       17.0998847530        9.7674294367
 Au        16.9912338577       11.8353198214       19.2842547697
 Au        16.3216212700       14.8426688245       18.5777215782
 Pt        16.7099932823       13.1169018106       10.9362734161
 Pt        16.9045470225       15.7993339358       10.5450853425
 Au        12.0354518102       12.6571170586       17.6357028092
 Au        11.6134300675       15.7810278175       19.4558288875
 Pt        12.0435187255       13.0980601651       10.6364013406
 Pt        12.2928810792       15.8130308564       10.5460181704
 Au        18.5897810371       16.8746543619       12.8513221322
 Au        18.3552002290       16.9975892894       15.7000678353
 Pt        11.5303290883       17.2510253280       12.7543762266
 Pt        10.3726525623       17.1404940534       15.1705794420
 Au        18.3288576591       12.2810444425       13.0540322338
 Au        18.2971636168       12.4524053735       16.1382242709
 Pt        11.0840676792       11.9161243798       12.9797934195
 Pt        10.6046833387       11.4396860126       15.6292068744
 Au        11.9541789415       18.0946482106       17.5768311238
 Au        15.9496148751       17.3147494716       17.2204823911
 Pt        13.2680472522       10.3187752009       16.5636999419
 Pt        16.0365645446       10.8191605437       16.8119799004
 Au        13.8169342054       18.7698491645       12.9523304002
 Au        16.3121561791       18.2275182692       11.8171794183
 Pt        13.3752596054       10.6855356163       12.2551618921
 Pt        16.0808084497       10.7723063346       12.1257136518
 Au        21.5240616142       13.9038294646        9.7677375930
 Pt        21.3315019500       14.1198615591       12.5726615186
 Au        21.7863237361       14.2589631074       15.2701119073
 Pt        21.4622709770       14.4639370364       17.9646470982
 Au         7.0317157108       15.6729013934       11.4460558827
 Pt         7.6315635457       13.4349668574       12.8791557938
 Au         7.0242496153       12.9358831081       15.5677428494
 Pt         7.3658724093       12.6554853322       18.3177755849
 Au        11.4661377821       21.9047890944       13.6933500624
 Pt        14.1340645957       21.4549276049       13.6141859326
 Au        16.7902800027       21.6690811898       13.5810551563
 Pt        19.4623085743       20.9571502475       13.5908794537
 Au        10.6412787257        6.9009858188       13.8214098900
 Pt        13.3798204892        7.3167666946       14.0491558107
 Au        16.1146123373        7.0783224756       14.0580561334
 Pt        18.8109686107        7.6673592114       14.0553749589
 Au        14.3632185176        9.5436496808       20.9262796524
 Pt        13.8013840081       12.2102905498       21.3196356986
 Au        16.0675168121       16.3069503365       21.1038402805
 Pt        15.9371034893       18.9228674885       20.2109047851
 Au        14.6580169640       10.1249668942        7.3739665226
 Pt        14.5804575279       12.9343976756        7.5817858452
 Au        14.6364223357       15.6006527447        7.0966949330
 Pt        14.8270133915       18.3448248038        7.3304185344
 Au        19.6344447198       12.6251507176       19.0411900984
 Au        16.1817148184       13.5063097786       21.3014688820
 Pt        20.3194810740       16.5884115202       19.0365097181
 Au        18.5592011680       14.8863460522       20.3776469558
 Pt        17.8810226516       17.4347133981       19.3239930105
 Pt        18.9447477058       12.8935685639        9.4332343514
 Au        16.9771321504       11.4302802196        8.2055467536
 Au        19.3928244291       15.5525773999        8.6964256042
 Pt        16.8617379651       14.2073607805        8.3295961025
 Au        17.1300520812       16.9726960398        7.9104280611
 Pt         9.7568937930       11.7502781401       19.0479524435
 Pt        11.9935389690       10.6962383048       19.8879736761
 Au         9.1570077613       14.4229474124       19.6902507590
 Pt        11.4910002337       13.2346099277       20.5403276539
 Au        13.5802469502       15.0432000366       21.7129654588
 Au         9.8752345547       12.4249229031        8.8525929153
 Pt        12.4157535881       11.5432966112        8.3603695346
 Pt        10.2471069865       16.3712593090        9.0623626778
 Au        12.0885381212       14.3698350079        8.0116767887
 Pt        12.5687607066       17.2433200342        8.1909509681
 Au        20.4631314648       18.8790329491       12.1233521776
 Au        21.0305642448       16.4400043379       10.9046777076
 Pt        20.2755477508       18.8479412060       14.9830064001
 Au        21.4318429072       16.6478885730       13.7558243697
 Pt        21.0011608137       16.6846991915       16.4765805367
 Pt        10.4304732749       19.6211862171       12.4948364558
 Au         8.8974774654       17.7303921674       11.0351203825
 Au         8.3530919499       18.4307975468       13.7836612965
 Pt         9.2084652018       15.8587535081       13.1068818687
 Au         7.9637727222       15.6219297499       15.5682910003
 Pt        19.7280413703        9.7820306014       12.7213668885
 Pt        20.5459947970       11.8320164653       11.3133890213
 Au        20.3471429462        9.5946458346       15.4419085281
 Pt        20.9383512474       11.9043346658       13.9615436402
 Au        21.1262896796       11.9409648335       16.7297838968
 Au         9.5556217473        9.1505804284       12.4433239259
 Pt         8.9570179285       11.6841283421       11.4433496623
 Pt         9.5676749816        8.9448977565       15.3398391837
 Au         8.0290480317       10.8614923035       13.9872205680
 Pt         8.4091568807       10.7575852944       16.8456961896
 Au        14.2197660375       19.7850161289       18.1590769036
 Au        13.1643272666       21.5595671495       16.1738189629
 Pt        17.0860183630       19.6766517591       18.0158704627
 Au        16.0142909664       21.7378220055       16.4250157597
 Pt        18.4416379930       20.5976580008       15.9953712801
 Pt        13.1297321125        8.6260240630       18.5509304125
 Au        11.8178397414        7.4611602354       16.3818745476
 Au        15.9360258815        8.7717660169       18.7141984338
 Pt        14.5899794652        7.8470225158       16.4051056775
 Au        17.3785504272        8.0096979421       16.4597441845
 Pt        13.8272324102       19.5039606060        9.4621986528
 Pt        12.6129273962       20.6317062218       11.4474775996
 Au        16.6194390933       19.5509629196        9.1219037993
 Pt        15.2725545800       20.7587285016       11.3448113623
 Au        18.1233428294       20.4070403616       11.2752610999
 Au        13.2703893447        8.9712518285        9.4899814546
 Pt        12.1255467226        8.3569110292       11.8879901171
 Pt        16.0806850844        9.2818271690        9.8066744871
 Au        14.7668261065        7.6978267218       11.6351665843
 Pt        17.4122183573        8.5183012394       11.9793637625
 Au        18.7449559143       10.1596028671       17.7671585612
 Au        19.6836950691       18.8550308578       17.6940299733
 Pt        18.3360892920       10.5462009778       10.5254589521
 Pt        18.6713497481       17.8623700079       10.1430121350
 Au        10.5073492098        9.3396444021       17.9704823529
 Au         9.5832421644       16.4302336489       17.6968191320
 Pt        11.1679872415       10.5204790473       10.5426780807
 Pt        11.4755659484       18.4898267379       10.2718537820
     147
 i =      198, E =    -11320.0624977039
 Au        14.1676569888       14.8783361227       14.7617788435
 Pt        16.6784585016       14.8075479515       13.1044094263
 Pt        16.6926609741       14.7729396093       15.8016515312
 Au        11.8086064389       14.5917711772       13.0036827425
 Au        11.6029054573       14.8398168504       15.9357224130
 Pt        13.0664408943       17.2991193022       15.1503524541
 Pt        15.8394361100       17.0411327870       14.4082017889
 Au        13.0790864793       12.3418496195       14.7997732646
 Au        15.9209424799       12.4211090904       14.4729282367
 Pt        14.7892603141       13.2189585044       16.9257336467
 Pt        13.6757069747       15.8044238694       17.3652501539
 Au        14.2922075030       13.2657832674       12.3690801853
 Au        14.3294704371       16.1112932174       12.2658195351
 Pt        18.9809601122       14.5123340420       11.5539693100
 Pt        19.1317472050       14.5345867994       14.4038120063
 Au        18.8729690523       14.8514453945       17.3703696388
 Au         9.5022376400       14.3632836666       10.7940163123