     147
 i =        1, E =    -11232.4456649265
 Au        14.3867452340       14.3846290088       14.3863389706
 Pt        16.8860614090       14.3599814679       12.8187957734
 Au        16.8387059260       14.3691651790       15.9368989920
 Pt        11.9287480358       14.3573608353       12.9152683753
 Au        11.9741380783       14.3735679463       15.8870227533
 Pt        12.8210447168       16.8830332930       14.3604312848
 Au        15.9361281513       16.8386164980       14.3688980129
 Pt        12.9135858752       11.9310938161       14.3592980849
 Au        15.8869601457       11.9754203447       14.3747625037
 Pt        14.3625372600       12.8187309757       16.8851402116
 Au        14.3686136697       15.9354574672       16.8380769766
 Pt        14.3568356199       12.9133196259       11.9298712817
 Au        14.3734739878       15.8860114559       11.9745730913
 Pt        19.2343372101       14.3864606786       11.4460423883
 Au        19.2662853068       14.4066977235       14.3820255705
 Pt        19.3492109701       14.3788535231       17.3849470933
 Au         9.5523115299       14.3894843036       11.4347977378
 Pt         9.4840153263       14.4110310543       14.3704103967
 Au         9.5062991781       14.3931253771       17.3860098454
 Pt        11.4511862744       19.2386966881       14.3907183377
 Au        14.3829206376       19.2655064309       14.4026850589
 Pt        17.3829502326       19.3488038077       14.3774287655
 Au        11.4338368102        9.5531959745       14.3924514084
 Pt        14.3717337062        9.4797080494       14.4052840927
 Au        17.3860894991        9.5066981890       14.3937171715
 Pt        14.3925660893       11.4424166392       19.2322001949
 Au        14.4030704564       14.3841273015       19.2661871235
 Pt        14.3763579853       17.3856710531       19.3460599925
 Au        14.3923735787       11.4342529253        9.5526744873
 Pt        14.4063706069       14.3739613977        9.4833652302
 Au        14.3943123811       17.3864038405        9.5063347073
 Pt        16.8002973226       12.8816788994       18.3527100865
 Au        16.8552922979       15.9222552734       18.3672632572
 Pt        16.8066705363       12.9329445684       10.4667702059
 Au        16.8527709819       15.8978702220       10.4460404710
 Pt        12.0272503426       12.8315025719       18.3589903944
 Au        11.9636227314       15.9434033957       18.3602168476
 Pt        12.0218151393       12.8835642612       10.4525543798
 Au        11.9657230237       15.9211638365       10.4463062062
 Pt        18.3490164011       16.8260675222       12.8470511068
 Au        18.3658820251       16.8550155973       15.9210005559
 Pt        10.4567422281       16.8258383203       12.8882018579
 Au        10.4466186381       16.8516988833       15.8956788052
 Pt        18.3604053844       12.0299465772       12.8292638080
 Au        18.3622530802       11.9770757250       15.9261037881
 Pt        10.4548820377       12.0198790031       12.8814465876
 Au        10.4485144082       11.9742036815       15.9000185575
 Pt        12.8455638431       18.3497851481       16.8251101687
 Au        15.9218018934       18.3664378337       16.8564582921
 Pt        12.9299793891       10.4665353820       16.8055390762
 Au        15.8758758943       10.4480588159       16.8429031124
 Pt        12.8071221156       18.3582198395       12.0080682433
 Au        15.9423471580       18.3602444277       11.9639903501
 Pt        12.8825697988       10.4538046126       12.0215712240
 Au        15.8997397908       10.4478901866       11.9746933072
 Au        21.6718331911       14.3994640219        9.9236140896
 Au        21.7231361427       14.4027974400       12.8914353448
 Pt        21.6062918967       14.4056256639       16.0021041988
 Pt        21.5592791333       14.3987975552       18.7578958353
 Au         7.1126228015       14.3999808321        9.9107763071
 Au         7.0844514461       14.4012892342       12.9295032863
 Pt         7.2305484715       14.4075435239       15.8997207515
 Pt         7.1967848057       14.3997757208       18.7924502854
 Au         9.9230200333       21.6716379836       14.4001920878
 Au        12.8921510204       21.7242591817       14.4020050504
 Pt        16.0017103880       21.6071908767       14.4017654204
 Pt        18.7593543559       21.5622536904       14.3990181431
 Au         9.9092312109        7.1114200640       14.3996511200
 Au        12.9297886048        7.0854783859       14.4015546009
 Pt        15.8982889713        7.2316581151       14.4015946433
 Pt        18.7954766906        7.1968318768       14.3993486782
 Au        14.4000672761        9.9217641417       21.6721643924
 Au        14.4012979621       12.8929547145       21.7214933781
 Pt        14.4025187636       16.0036680481       21.6077683834
 Pt        14.3988701141       18.7574003635       21.5616578523
 Au        14.3995234428        9.9085619660        7.1130112831
 Au        14.4010525104       12.9299043229        7.0856912519
 Pt        14.4020791412       15.9028405678        7.2325503513
 Pt        14.4001261888       18.7920772224        7.1941015319
 Au        19.2778838346       12.8770472001       19.8412694348
 Pt        16.7819214767       11.4280143710       20.6791825848
 Au        19.2935322382       15.9440159146       19.8415411089
 Au        16.8537025851       14.3998236457       20.8574672960
 Pt        16.7496866660       17.4068575034       20.7071161865
 Au        19.2453171416       12.8801174934        8.9467359773
 Pt        16.8184535584       11.4691633737        8.1080959432
 Au        19.2578016432       15.9425644652        8.9490448094
 Pt        16.7796701248       14.3954939043        8.0382357473
 Pt        16.7782574559       17.3696406711        8.0741103852
 Au         9.5200091894       12.8661226891       19.8519868213
 Pt        12.0124467913       11.4344960910       20.6836434468
 Au         9.5033763200       15.9551808612       19.8538062158
 Au        11.9444795921       14.3992581653       20.8524350687
 Pt        12.0547299440       17.4006832142       20.7089648242
 Au         9.5518591534       12.8710561281        8.9337127557
 Pt        11.9824085883       11.4736376679        8.1066979346
 Au         9.5352260469       15.9545119268        8.9281599008
 Pt        12.0126857132       14.3933257297        8.0489084414
 Pt        12.0186276013       17.3620107217        8.0745173806
 Au        19.8340782847       19.2746876205       12.8620949566
 Pt        20.6525840731       16.7984253109       11.4118468964
 Au        19.8418410887       19.2943164393       15.9428704028
 Au        20.8597184057       16.8515231981       14.4020291328
 Pt        20.7057680271       16.7490730704       17.4065747088
 Au         8.9537027331       19.2405717881       12.8654939226
 Pt         8.1363120318       16.8358384314       11.4565070304
 Au         8.9473195105       19.2584737831       15.9418414872
 Pt         8.0337801003       16.7788030942       14.4002276450
 Pt         8.0741856295       16.7798855312       17.3689191062
 Au        19.8511702400        9.5209461531       12.8657147685
 Pt        20.6837615159       12.0131679936       11.4343204524
 Au        19.8649949083        9.4983998983       15.9379690185
 Au        20.8515093716       11.9446033078       14.4011134364
 Pt        20.7414677729       12.0680803710       17.3861244640
 Au         8.9353335547        9.5527274821       12.8708847476
 Pt         8.1060811362       11.9828596313       11.4715561428
 Au         8.9174435555        9.5318516442       15.9372149460
 Pt         8.0527191207       12.0157403900       14.3964238022
 Pt         8.0405085362       12.0345099822       17.3514907203
 Au        12.8615135159       19.8335670661       19.2743113313
 Pt        11.4108678035       20.6525192934       16.7961634092
 Au        15.9433534178       19.8422230875       19.2944966737
 Au        14.4018964376       20.8577640209       16.8525806731
 Pt        17.4080918038       20.7068611986       16.7490827566
 Au        12.8798438490        8.9487550379       19.2441266456
 Pt        11.4668797520        8.1070776961       16.8187767154
 Au        15.9257595761        8.9392957539       19.2630199888
 Pt        14.3979639561        8.0407525307       16.7816035256
 Pt        17.3551580744        8.0443052631       16.7640291250
 Au        12.8486810037       19.8420471377        9.5248489071
 Pt        11.4198626392       20.6553207507       11.9969911110
 Au        15.9547248272       19.8546116593        9.5018727208
 Au        14.4008214121       20.8518521488       11.9454535562
 Pt        17.4012850354       20.7090674508       12.0554880828
 Au        12.8704587548        8.9347306587        9.5522924097
 Pt        11.4727324395        8.1072723553       11.9818025781
 Au        15.9382532062        8.9172019851        9.5315655715
 Pt        14.3957942177        8.0503445737       12.0129779844
 Pt        17.3498180737        8.0410611873       12.0334491154
 Au        18.3862621538       10.4184011546       18.3932105820
 Pt        18.3569386424       18.3589054599       18.3556950535
 Au        18.3800965804       10.4288084884       10.4250263037
 Pt        18.3509142927       18.3381866244       10.4776886210
 Au        10.4299677713       10.4249615104       18.3800839097
 Pt        10.4761787860       18.3514140372       18.3387949531
 Au        10.4355656403       10.4352012726       10.4360935644
 Pt        10.4817300946       18.3287036819       10.4937252054
     147
 i =        2, E =    -11232.7583538117
 Au        14.3926143674       14.3902241653       14.3910489670
 Pt        16.8406992005       14.3222612269       12.7895236626
 Au        16.7930254419       14.3458565142       15.9651881375
 Pt        11.9496907223       14.3093440484       12.9771872335
 Au        12.0060721415       14.3454135243       15.8657859618
 Pt        12.7842442706       16.8375448686       14.3140295822
 Au        15.9668864949       16.7940126649       14.3388894502
 Pt        12.9752540464       11.9581139036       14.3082406247
 Au        15.8659341725       12.0079301684       14.3450105962
 Pt        14.3245369315       12.7942367190       16.8380309400
 Au        14.3370682408       15.9676499660       16.7911887679
 Pt        14.3026827812       12.9751247874       11.9548622991
 Au        14.3415734319       15.8648562680       12.0078838694
 Pt        19.1348154137       14.3701560963       11.5234171460
 Au        19.1915621401       14.4287038225       14.3618679447
 Pt        19.1775927958       14.3563455271       17.2773394198
 Au         9.6518265790       14.3869835232       11.4734911861
 Pt         9.5596755820       14.4386914758       14.3342822316
 Au         9.7531241230       14.3863105403       17.3315758232
 Pt        11.5389586574       19.1461699250       14.3858593051
 Au        14.3623024866       19.1873466018       14.4114953641
 Pt        17.2717921916       19.1943630614       14.3547508130
 Au        11.4714438248        9.6549375775       14.3999056983
 Pt        14.3342855719        9.5506015209       14.4159141325
 Au        17.3331913494        9.7566981890       14.3930848607
 Pt        14.3887170667       11.5154520438       19.1263571316
 Au        14.4089365157       14.3726561935       19.1929667878
 Pt        14.3518087671       17.2757068018       19.1868316594
 Au        14.3997465225       11.4721838975        9.6547514942
 Pt        14.4177426387       14.3437234196        9.5603075385
 Au        14.3943327804       17.3345844037        9.7525012288
 Pt        16.7279359866       12.8980172214       18.3023273958
 Au        16.8457932497       15.8851415269       18.3178064473
 Pt        16.7330884846       12.9834777243       10.5454077583
 Au        16.8186321249       15.8755874450       10.5068679056
 Pt        12.1134144133       12.7935075017       18.3094974411
 Au        11.9740661525       15.9113032021       18.3042058232
 Pt        12.0983593162       12.9008749200       10.5222888003
 Au        11.9977594923       15.8877638645       10.5253947985
 Pt        18.2888691336       16.7654355363       12.8534895816
 Au        18.3146336824       16.8419865964       15.8782352972
 Pt        10.5317527151       16.7507219566       12.9225363862
 Au        10.5092677598       16.8152968830       15.8598054480
 Pt        18.3102759661       12.1216445854       12.7874449602
 Au        18.3156917160       11.9848509148       15.9079143899
 Pt        10.5300991501       12.0925436345       12.8928641414
 Au        10.5217510103       11.9965155780       15.8802591763
 Pt        12.8502364636       18.2902358465       16.7615923842
 Au        15.8789971731       18.3157990948       16.8450120352
 Pt        12.9719607993       10.5445385843       16.7307422004
 Au        15.8601680049       10.5068838676       16.8148431364
 Pt        12.7782149579       18.3037475456       12.0941676087
 Au        15.9077013255       18.3048743250       11.9749552073
 Pt        12.8939422864       10.5283914769       12.0967693100
 Au        15.8796087453       10.5225893570       11.9970823141
 Au        21.5164027992       14.3981810396       10.0350535513
 Au        21.6680369240       14.4105534898       12.9132105803
 Pt        21.4689754775       14.4218186974       16.0447720787
 Pt        21.3715369860       14.3997173143       18.5658189279
 Au         7.2515764040       14.4003370581       10.0149774536
 Au         7.1163748628       14.4052374557       12.9706508519
 Pt         7.4175515292       14.4192067044       15.8323528562
 Pt         7.3752313009       14.3997103690       18.5899854775
 Au        10.0345005622       21.5142854600       14.4003831613
 Au        12.9139780332       21.6712750627       14.4044336760
 Pt        16.0510160556       21.4651031889       14.4095360080
 Pt        18.5595485681       21.3638357212       14.4001821886
 Au        10.0105866191        7.2462860590       14.4006792801
 Au        12.9701745424        7.1160529289       14.4046402261
 Pt        15.8312564169        7.4158375237       14.4014678548
 Pt        18.5986849346        7.3728141253       14.3986936592
 Au        14.3997740832       10.0288454430       21.5198885321
 Au        14.4038643063       12.9178149298       21.6645604122
 Pt        14.4107700581       16.0574983596       21.4670285677
 Pt        14.4014547771       18.5542076850       21.3649583035
 Au        14.3998454510       10.0078779368        7.2509918270
 Au        14.4030680173       12.9735185915        7.1186823110
 Pt        14.4034273579       15.8427072907        7.4217903654
 Pt        14.4010425026       18.5868021071        7.3702932872
 Au        19.1968038822       12.8608258856       19.7878619518
 Pt        16.7005662537       11.5108973146       20.4873688516
 Au        19.2481159554       15.9957812074       19.7919298662
 Au        16.8557424704       14.4009449903       20.8910209239
 Pt        16.6625794238       17.3812913073       20.5709845351
 Au        19.1526706115       12.8868899858        8.9979974811
 Pt        16.7846128936       11.6227658209        8.2970988717
 Au        19.1916619603       15.9748303632        8.9951542287
 Pt        16.6920371309       14.3896681924        8.1013409193
 Pt        16.7059263411       17.2841638236        8.1859040756
 Au         9.5857264646       12.8442184877       19.7903983426
 Pt        12.0801171166       11.5256827259       20.5158862880
 Au         9.5346864466       16.0106174467       19.7938003473
 Au        11.9382772691       14.4001292027       20.8701066891
 Pt        12.1374868901       17.3600562661       20.5940098190
 Au         9.6435455200       12.8691784434        8.9822583843
 Pt        12.0155296544       11.6270200556        8.2762042014
 Au         9.5984674927       15.9969310081        8.9636279045
 Pt        12.0863984088       14.3864267330        8.1371478988
 Pt        12.0841568813       17.2664723406        8.1758814692
 Au        19.7798561611       19.2017471468       12.8311462433
 Pt        20.4272095448       16.7404903573       11.4631216673
 Au        19.7918472384       19.2525124746       15.9885540359
 Au        20.8921573229       16.8506777376       14.4052021237
 Pt        20.5647961655       16.6667713396       17.3783825063
 Au         9.0077767581       19.1548693294       12.8584216575
 Pt         8.3528280230       16.8279384960       11.5790641422
 Au         8.9916035276       19.1918148723       15.9709487668
 Pt         8.0966285616       16.6860462418       14.4019469433
 Pt         8.1883585417       16.7113881408       17.2826571378
 Au        19.7889062736        9.5880640988       12.8419306499
 Pt        20.5182274695       12.0798540906       11.5238376896
 Au        19.8168310798        9.5304496717       15.9678782863
 Au        20.8700169867       11.9370816315       14.4034425315
 Pt        20.6619608343       12.1618066553       17.3188687735
 Au         8.9850511040        9.6460668716       12.8683669703
 Pt         8.2745386434       12.0161676030       11.6203229044
 Au         8.9423013960        9.5986971447       15.9573799043
 Pt         8.1421142908       12.0924655864       14.3922872874
 Pt         8.1049603363       12.1235047215       17.2320238798
 Au        12.8290729913       19.7790564405       19.1999230944
 Pt        11.4608278619       20.4277198831       16.7352787132
 Au        15.9902841231       19.7937715961       19.2525149268
 Au        14.4044980265       20.8863482691       16.8523866048
 Pt        17.3840382139       20.5693861035       16.6621980594
 Au        12.8842208105        9.0022593133       19.1507814519
 Pt        11.6156550798        8.2941324867       16.7844037537
 Au        15.9361869932        8.9779670448       19.1953248097
 Pt        14.3936911073        8.1033285529       16.6980856227
 Pt        17.2414371648        8.1252610282       16.6723009626
 Au        12.8037439262       19.7705568340        9.5877032924
 Pt        11.4824680467       20.4594541640       12.0423003500
 Au        16.0076602036       19.7955496966        9.5322118897
 Au        14.4037558397       20.8657574238       11.9407446635
 Pt        17.3622290514       20.5949844993       12.1385037931
 Au        12.8672390658        8.9841842578        9.6439790581
 Pt        11.6242179554        8.2775492182       12.0139606870
 Au        15.9607133163        8.9418271184        9.5979495021
 Pt        14.3898003131        8.1357893900       12.0860892108
 Pt        17.2284835224        8.1077936147       12.1200888935
 Au        18.3992061615       10.4076778010       18.4074670691
 Pt        18.3428003511       18.3442654039       18.3379769729
 Au        18.3765408707       10.4239341992       10.4208684005
 Pt        18.3328310813       18.3009055056       10.5294767037
 Au        10.4275663153       10.4208876415       18.3766960563
 Pt        10.5241970918       18.3320303137       18.3018573116
 Au        10.4502083361       10.4493216632       10.4514380242
 Pt        10.5274898322       18.2779540917       10.5546029891
     147
 i =        3, E =    -11232.9124651776
 Au        14.4127395780       14.4134608545       14.4111299862
 Pt        16.7297313649       14.3321222480       12.8459613831
 Au        16.7038658767       14.3316170205       15.9399221562
 Pt        12.0187530711       14.3033409940       13.0333459062
 Au        12.1040489289       14.3264066316       15.8179970904
 Pt        12.8255647958       16.7236862268       14.3095520529
 Au        15.9446546526       16.7074487779       14.3235310472
 Pt        13.0283756399       12.0272761717       14.3005477710
 Au        15.8207950184       12.1044386577       14.3289204955
 Pt        14.3314235840       12.8460646739       16.7265006372
 Au        14.3205732924       15.9470804040       16.6999918675
 Pt        14.2948974566       13.0294349489       12.0263796317
 Au        14.3263005982       15.8170585712       12.1075527137
 Pt        19.0520627271       14.3823856088       11.5492803240
 Au        19.1293912749       14.4455461048       14.3575394761
 Pt        18.9470342352       14.3396888156       17.2195727709
 Au         9.7350411187       14.3914797331       11.4704705333
 Pt         9.6725724418       14.4505191768       14.2868245503
 Au         9.9041033375       14.3688616832       17.3346059071
 Pt        11.5759873045       19.0705149377       14.3916574846
 Au        14.3571763669       19.1240627540       14.4208455698
 Pt        17.2001919698       18.9443630614       14.3501490864
 Au        11.4674505890        9.7441384223       14.4073583137
 Pt        14.2833101272        9.6633111334       14.4217391853
 Au        17.3393969715        9.9075478820       14.3820836708
 Pt        14.3948222013       11.5404213458       19.0356300670
 Au        14.4118737003       14.3725692305       19.1330682338
 Pt        14.3484264422       17.2079206147       18.9380050221
 Au        14.4084688911       11.4692135697        9.7447496850
 Pt        14.4236321260       14.3009892702        9.6711183190
 Au        14.3826643695       17.3385925936        9.9071407647
 Pt        16.6830836684       12.9423239373       18.2139030688
 Au        16.8378219408       15.8446893510       18.2705262901
 Pt        16.6718385626       13.0153255384       10.6225938327
 Au        16.7961331789       15.8555245887       10.5653732173
 Pt        12.1406675054       12.8132219006       18.2126977125
 Au        11.9805749676       15.8653105461       18.2621292975
 Pt        12.1107626960       12.9426486781       10.6239803399
 Au        11.9995269700       15.8391380579       10.5983332199
 Pt        18.1820260435       16.7188813837       12.9178485751
 Au        18.2666304701       16.8350962565       15.8310753256
 Pt        10.6335894647       16.6759558919       12.9811032619
 Au        10.5674314091       16.7933030355       15.8328082474
 Pt        18.2107225285       12.1461053559       12.8083690341
 Au        18.2796470118       11.9899506851       15.8879009902
 Pt        10.6328574773       12.1052468753       12.9337112612
 Au        10.5919847732       11.9889283792       15.8608551526
 Pt        12.9135980978       18.1838178379       16.7134060843
 Au        15.8325801808       18.2696108805       16.8369012633
 Pt        13.0031711016       10.6269316119       16.6686100646
 Au        15.8611712486       10.5665704700       16.8009818472
 Pt        12.8419635102       18.1998735064       12.1373138682
 Au        15.8604838685       18.2659514130       11.9839697505
 Pt        12.9345380314       10.6344745808       12.1114514009
 Au        15.8602672856       10.5948736329       11.9888766315
 Au        21.3900691939       14.3959203078       10.1119183778
 Au        21.6251512510       14.4193598815       12.9517691709
 Pt        21.4030412601       14.4518418226       15.9293237134
 Pt        21.2484728047       14.4041311062       18.5663546970
 Au         7.3714909891       14.3998819062       10.1031194552
 Au         7.1344672838       14.4067016441       12.9840681710
 Pt         7.5409212392       14.4226842976       15.7928901022
 Pt         7.5287441288       14.4032166538       18.4357763684
 Au        10.1126283406       21.3852936560       14.3981751895
 Au        12.9513603187       21.6294572121       14.4050641462
 Pt        15.9225851744       21.4069394392       14.4227045775
 Pt        18.5785472667       21.2549785986       14.3990105542
 Au        10.0963356635        7.3633666367       14.4008109761
 Au        12.9829312287        7.1316720866       14.4042878099
 Pt        15.7898026555        7.5342322678       14.3951118817
 Pt        18.4478762568        7.5258395789       14.3961486552
 Au        14.3979970701       10.1025790238       21.3957005944
 Au        14.4054686458       12.9585643242       21.6207361169
 Pt        14.4233301374       15.9250834840       21.4090899312
 Pt        14.4012314267       18.5794681458       21.2548505169
 Au        14.3992821534       10.0920141575        7.3699508274
 Au        14.4012377584       12.9916248235        7.1372765557
 Pt        14.3986151319       15.8048502686        7.5497206153
 Pt        14.3990134760       18.4325343234        7.5148738733
 Au        19.1324967855       12.8611392167       19.7358922544
 Pt        16.6748088816       11.5492277434       20.4003954233
 Au        19.2077354093       16.0332083156       19.7592182098
 Au        16.8575516302       14.4085458226       20.9109348447
 Pt        16.6648875573       17.3540563870       20.4722040692
 Au        19.0956157779       12.9090506369        9.0405865505
 Pt        16.7657961744       11.7095806843        8.3989441249
 Au        19.1322937347       15.9956415297        9.0184128095
 Pt        16.6557318643       14.4045668642        8.1346460040
 Pt        16.6620650285       17.2185900126        8.2653341802
 Au         9.6391540733       12.8319503160       19.7346365718
 Pt        12.0957012968       11.5644239180       20.4658816636
 Au         9.5610247736       16.0589786356       19.7443548359
 Au        11.9350672653       14.4082590768       20.8761062969
 Pt        12.1191832819       17.3225964535       20.5232805490
 Au         9.6963727376       12.8834113619        9.0272369226
 Pt        12.0424698377       11.7040851313        8.3501494720
 Au         9.6530658083       16.0298759528        8.9933810737
 Pt        12.1231711347       14.4049314795        8.1922191892
 Pt        12.1308881701       17.1873997999        8.2534627762
 Au        19.7402707048       19.1467949092       12.8258687419
 Pt        20.3332370683       16.7185675838       11.4732087852
 Au        19.7616925656       19.2099929685       16.0218887789
 Au        20.9119938505       16.8536579840       14.4102105975
 Pt        20.4636994622       16.6654167361       17.3530629035
 Au         9.0487324372       19.1141554536       12.8805046761
 Pt         8.4470317459       16.8152183638       11.6293370067
 Au         9.0144615815       19.1306201807       15.9889794354
 Pt         8.1273037596       16.6575127514       14.4075747058
 Pt         8.2751698123       16.6693494228       17.2192982431
 Au        19.7314184139        9.6421658300       12.8286778903
 Pt        20.4754846788       12.0886650586       11.5597398134
 Au        19.7769244208        9.5571622360       15.9937009327
 Au        20.8751717334       11.9334063387       14.4090077011
 Pt        20.6081000646       12.1552834071       17.2609062893
 Au         9.0316115903        9.7003507062       12.8825619139
 Pt         8.3480393112       12.0391881430       11.6982782543
 Au         8.9623618269        9.6580806468       15.9739512068
 Pt         8.2039959779       12.1358868072       14.4026270786
 Pt         8.1581099102       12.1799619244       17.1330943341
 Au        12.8219947446       19.7384730380       19.1436483838
 Pt        11.4694754557       20.3374387241       16.7177637063
 Au        16.0252132153       19.7638907057       19.2102117636
 Au        14.4088462964       20.9010009596       16.8537270274
 Pt        17.3578855524       20.4683205590       16.6660001645
 Au        12.9034063249        9.0475627763       19.0936457160
 Pt        11.7001961292        8.3922843611       16.7652592633
 Au        15.9434942193        9.0029500715       19.1340987228
 Pt        14.4022213515        8.1368574810       16.6648092707
 Pt        17.1545659701        8.1903713312       16.6192836849
 Au        12.7736677651       19.7091033928        9.6354556053
 Pt        11.4921125444       20.4084958936       12.0463307678
 Au        16.0566637319       19.7484632395        9.5607059699
 Au        14.4085861215       20.8681157401       11.9388387147
 Pt        17.3253540488       20.5241469336       12.1196678050
 Au        12.8810547864        9.0316364080        9.6962583227
 Pt        11.7027092102        8.3515135029       12.0409514341
 Au        15.9790356274        8.9623245268        9.6570544534
 Pt        14.3995345378        8.1922890319       12.1216979013
 Pt        17.1318291020        8.1658347270       12.1751255260
 Au        18.4110682013       10.3979898783       18.4105156734
 Pt        18.3224353495       18.3245971456       18.3142282334
 Au        18.3701882843       10.4117951925       10.4185005220
 Pt        18.3053253218       18.2842747961       10.5556294688
 Au        10.4172882828       10.4186051283       18.3704962690
 Pt        10.5461066086       18.3023993881       18.2815043543
 Au        10.4609447232       10.4601101234       10.4614816593
 Pt        10.5477620864       18.2391351244       10.5715655457
     147
 i =        4, E =    -11232.9160193892
 Au        14.4313977469       14.4323322666       14.4319537535
 Pt        16.6583547209       14.3808575520       12.9404518140
 Au        16.5853420720       14.3563771109       15.8296365722
 Pt        12.1099490366       14.3349719424       13.0489306195
 Au        12.1374543329       14.3288622413       15.8125983750
 Pt        12.9387136003       16.6457736174       14.3825145112
 Au        15.8065461541       16.5669839580       14.3599094128
 Pt        13.0434946483       12.1134468020       14.3425399131
 Au        15.8163847428       12.1371874156       14.3376248095
 Pt        14.3850964242       12.9362783631       16.6530700823
 Au        14.3558577916       15.8144110240       16.5587711297
 Pt        14.3394144604       13.0448843934       12.1115426004
 Au        14.3447741169       15.8017799212       12.1388922626
 Pt        18.9664742764       14.3802954991       11.5608816416
 Au        19.0771431062       14.4421571610       14.3598690201
 Pt        18.9352312875       14.3334371338       17.2690224747
 Au         9.7929390607       14.3825505686       11.4436772599